LAMMPS Description

37 atoms
36 bonds
68 angles
96 dihedrals
0 impropers

6 atom types
7 bond types
3 angle types
4 dihedral types
1 improper types

0.0 25.0 xlo xhi
0.0 25.0 ylo yhi
0.0 25.0 zlo zhi

Masses

1 1.008  # H
2 1.008  # H_HB
3 12.011  # C_3
4 12.011  # C_2
5 15.999  # O_3_hd
6 15.999  # O_2_ha

Atoms

1 1 3 0.14215166998197 -1.3812 1.2763 -0.7148
2 1 1 0.133558538367602 -0.9618 3.3641 -1.1429
3 1 1 0.108734514666176 -4.892 -2.185 -0.0558
4 1 1 0.100636648250172 -4.2289 -2.9961 -1.4754
5 1 3 -0.115130708058834 -1.2039 0.1818 0.4044
6 1 1 0.105367812374268 -3.5136 -3.2878 0.115
7 1 1 0.11395781091428 0.2039 2.6328 -0.0374
8 1 3 -0.0608318918309049 -2.4653 -0.7369 0.5661
9 1 1 0.113800257456189 1.1827 1.088 1.443
10 1 1 0.101467886962923 2.266 -0.1991 0.9202
11 1 3 -0.035845212512711 0.1667 -0.5965 0.4841
12 1 1 0.150043273535944 1.5766 0.8965 -0.2811
13 1 1 0.146254141641451 -1.1855 0.7415 1.3421
14 1 3 -0.184856594478385 -2.9897 -1.3572 -0.7625
15 1 1 0.137814387245798 -3.9977 0.8405 0.638
16 1 1 0.107355361658753 -4.4348 -0.6194 1.5325
17 1 3 -0.339348947306411 -3.6069 0.0425 1.2734
18 1 1 0.125664604792417 -3.2549 0.4929 2.2044
19 1 1 0.0997616429173925 -2.1882 -1.5525 1.2381
20 1 3 -0.340449012440268 -3.9675 -2.5271 -0.5244
21 1 1 0.109212640928261 -3.4848 -0.5959 -1.3695
22 1 1 0.112645187608187 -2.165 -1.741 -1.3577
23 1 3 -0.346544904395431 1.3689 0.3622 0.6479
24 1 1 0.103845303080967 0.3823 -3.777 -1.0246
25 1 1 0.105425029408449 0.7723 -3.3763 0.6523
26 1 3 -0.176627080852706 0.4786 -1.6404 -0.633
27 1 1 0.115130847719363 -0.8892 -3.2073 0.064
28 1 1 0.0936367201257799 0.136 -1.1492 1.4279
29 1 3 -0.347390638830904 0.1613 -3.0888 -0.2062
30 1 1 0.139259545741951 -0.0349 -1.4114 -1.5636
31 1 1 0.112013396964185 1.5438 -1.6107 -0.8755
32 1 3 -0.00537389112745202 -0.8536 2.6775 -0.2988
33 1 5 -0.652836377953209 -1.5966 3.1974 0.8137
34 1 2 0.280248100281578 -1.1633 4.0089 1.1505
35 1 5 -0.658073891457847 -0.778 0.9133 -1.9652
36 1 2 0.279435114111353 -1.2726 0.1754 -2.3802
37 1 1 0.125888714509655 -2.449 1.4105 -0.9015

Bonds

1 4 1 5
2 4 1 32
3 6 1 35
4 2 1 37
5 4 5 8
6 4 5 11
7 2 5 13
8 4 8 14
9 4 8 17
10 2 8 19
11 4 11 23
12 4 11 26
13 2 11 28
14 4 14 20
15 2 14 21
16 2 14 22
17 2 15 17
18 2 16 17
19 2 17 18
20 2 3 20
21 2 4 20
22 2 6 20
23 2 9 23
24 2 10 23
25 2 12 23
26 4 26 29
27 2 26 30
28 2 26 31
29 2 24 29
30 2 25 29
31 2 27 29
32 2 2 32
33 2 7 32
34 6 32 33
35 5 33 34
36 5 35 36

Angles

1 1 1 5 8
2 1 1 5 11
3 1 5 1 32
4 1 5 8 14
5 1 5 8 17
6 1 5 11 23
7 1 5 11 26
8 1 8 5 11
9 1 8 14 20
10 1 11 26 29
11 1 14 8 17
12 1 23 11 26
13 1 1 5 13
14 1 1 32 2
15 1 1 32 7
16 1 5 1 37
17 1 5 8 19
18 1 5 11 28
19 1 8 5 13
20 1 8 14 21
21 1 8 14 22
22 1 8 17 15
23 1 8 17 16
24 1 8 17 18
25 1 11 5 13
26 1 9 23 11
27 1 10 23 11
28 1 11 23 12
29 1 11 26 30
30 1 11 26 31
31 1 14 8 19
32 1 3 20 14
33 1 4 20 14
34 1 6 20 14
35 1 17 8 19
36 1 20 14 21
37 1 20 14 22
38 1 23 11 28
39 1 26 11 28
40 1 24 29 26
41 1 25 29 26
42 1 26 29 27
43 1 29 26 30
44 1 29 26 31
45 1 32 1 37
46 1 1 32 33
47 1 5 1 35
48 1 32 1 35
49 1 2 32 7
50 1 3 20 4
51 1 3 20 6
52 1 4 20 6
53 1 9 23 10
54 1 9 23 12
55 1 10 23 12
56 1 15 17 16
57 1 15 17 18
58 1 16 17 18
59 1 21 14 22
60 1 24 29 25
61 1 24 29 27
62 1 25 29 27
63 1 30 26 31
64 1 2 32 33
65 1 7 32 33
66 1 35 1 37
67 2 1 35 36
68 2 32 33 34

Dihedrals

1 1 1 5 8 14
2 1 1 5 8 17
3 1 1 5 11 23
4 1 1 5 11 26
5 1 5 8 14 20
6 1 5 11 26 29
7 1 8 5 1 32
8 1 8 5 11 23
9 1 8 5 11 26
10 1 11 5 1 32
11 1 11 5 8 14
12 1 11 5 8 17
13 1 17 8 14 20
14 1 23 11 26 29
15 1 1 5 8 19
16 1 1 5 11 28
17 1 2 32 1 5
18 1 5 1 32 7
19 1 5 8 14 21
20 1 5 8 14 22
21 1 5 8 17 15
22 1 5 8 17 16
23 1 5 8 17 18
24 1 5 11 23 9
25 1 5 11 23 10
26 1 5 11 23 12
27 1 5 11 26 30
28 1 5 11 26 31
29 1 8 5 1 37
30 1 8 5 11 28
31 1 3 20 14 8
32 1 4 20 14 8
33 1 6 20 14 8
34 1 11 5 1 37
35 1 11 5 8 19
36 1 11 26 29 24
37 1 11 26 29 25
38 1 11 26 29 27
39 1 13 5 8 14
40 1 14 8 17 15
41 1 14 8 17 16
42 1 14 8 17 18
43 1 13 5 8 17
44 1 17 8 14 21
45 1 17 8 14 22
46 1 19 8 14 20
47 1 13 5 11 23
48 1 23 11 26 30
49 1 23 11 26 31
50 1 13 5 11 26
51 1 9 23 11 26
52 1 10 23 11 26
53 1 12 23 11 26
54 1 28 11 26 29
55 1 13 5 1 32
56 1 2 32 1 35
57 1 7 32 1 35
58 1 13 5 1 35
59 1 33 32 1 37
60 1 2 32 1 37
61 1 3 20 14 21
62 1 3 20 14 22
63 1 4 20 14 21
64 1 4 20 14 22
65 1 6 20 14 21
66 1 6 20 14 22
67 1 7 32 1 37
68 1 9 23 11 28
69 1 10 23 11 28
70 1 12 23 11 28
71 1 13 5 1 37
72 1 13 5 8 19
73 1 13 5 11 28
74 1 15 17 8 19
75 1 16 17 8 19
76 1 18 17 8 19
77 1 19 8 14 21
78 1 19 8 14 22
79 1 24 29 26 30
80 1 24 29 26 31
81 1 25 29 26 30
82 1 25 29 26 31
83 1 27 29 26 30
84 1 27 29 26 31
85 1 28 11 26 30
86 1 28 11 26 31
87 1 5 1 32 33
88 1 8 5 1 35
89 1 11 5 1 35
90 1 33 32 1 35
91 2 1 32 33 34
92 2 5 1 35 36
93 2 32 1 35 36
94 2 2 32 33 34
95 2 7 32 33 34
96 2 36 35 1 37
