LAMMPS Description

37 atoms
35 bonds
64 angles
81 dihedrals
1 impropers

6 atom types
7 bond types
3 angle types
4 dihedral types
1 improper types

0.0 25.0 xlo xhi
0.0 25.0 ylo yhi
0.0 25.0 zlo zhi

Masses

1 1.008  # H
2 1.008  # H_HB
3 12.011  # C_3
4 12.011  # C_2
5 15.999  # O_3_hd
6 15.999  # O_2_ha

Atoms

1 1 4 0.167362410793466 -1.1558 0.7031 -1.0739
2 1 6 -0.482882327174761 -1.4955 0.3146 -2.1744
3 1 1 0.111163362812876 -4.7999 -2.5863 0.3866
4 1 1 0.110242840321096 -4.1781 -3.6541 -0.88
5 1 3 -0.133499410008985 -1.2099 -0.1009 0.2164
6 1 1 0.106361649015485 -3.3321 -3.5399 0.6677
7 1 1 0.113452175638607 -1.1011 1.7994 -0.994
8 1 3 -0.0407624428779045 -2.5712 -0.8328 0.4704
9 1 1 0.12064340410097 1.0698 0.6041 1.6126
10 1 1 0.107043887524105 2.1588 -0.6532 1.0284
11 1 3 -0.0498768760923164 0.0711 -0.972 0.4644
12 1 1 0.132443336537271 1.5337 0.5627 -0.0977
13 1 1 0.122893124850007 -1.1701 0.6561 1.0039
14 1 3 -0.171323534265119 -3.0248 -1.8233 -0.6429
15 1 1 0.151405205123241 -3.8627 0.8156 -0.1749
16 1 1 0.109567103578033 -4.6328 -0.2885 0.972
17 1 3 -0.343700846526133 -3.6938 0.206 0.7162
18 1 1 0.126734511465561 -3.4321 0.8712 1.5415
19 1 1 0.0956380300412411 -2.4522 -1.3989 1.3967
20 1 3 -0.349047516263174 -3.89 -2.9695 -0.0791
21 1 1 0.151720278661204 -3.5867 -1.2936 -1.4167
22 1 1 0.141550593741988 -2.1745 -2.2733 -1.1459
23 1 3 -0.352702634416491 1.2814 -0.0549 0.7673
24 1 1 0.110362940371892 0.4266 -4.0984 -1.1157
25 1 1 0.10849353341946 0.9207 -3.7157 0.5401
26 1 3 -0.183079640360914 0.4509 -1.9679 -0.6751
27 1 1 0.115608641806137 -0.784 -3.6139 0.0802
28 1 1 0.0993513021754728 -0.0974 -1.5457 1.3801
29 1 3 -0.344841922685818 0.2364 -3.4395 -0.2653
30 1 1 0.161326996679754 -0.1002 -1.7575 -1.5909
31 1 1 0.112290730476322 1.5051 -1.8544 -0.9412
32 2 3 -0.127626836009114 -0.5477 4.8588 0.2105
33 2 5 -0.616812646156111 -1.012 4.3381 1.4555
34 2 2 0.287793104780247 -0.7447 4.9529 2.1642
35 2 1 0.128608881908406 -0.8946 4.2214 -0.6066
36 2 1 0.103708070654921 -0.9347 5.8709 0.0641
37 2 1 0.100390516359077 0.5452 4.8869 0.206

Bonds

1 7 1 2
2 3 1 5
3 1 1 7
4 4 5 8
5 4 5 11
6 2 5 13
7 4 8 14
8 4 8 17
9 2 8 19
10 4 11 23
11 4 11 26
12 2 11 28
13 4 14 20
14 2 14 21
15 2 14 22
16 2 15 17
17 2 16 17
18 2 17 18
19 2 3 20
20 2 4 20
21 2 6 20
22 2 9 23
23 2 10 23
24 2 12 23
25 4 26 29
26 2 26 30
27 2 26 31
28 2 24 29
29 2 25 29
30 2 27 29
31 6 32 33
32 2 32 35
33 2 32 36
34 2 32 37
35 5 33 34

Angles

1 1 1 5 8
2 1 1 5 11
3 1 1 5 13
4 1 3 20 14
5 1 4 20 14
6 1 6 20 14
7 1 9 23 11
8 1 10 23 11
9 1 11 23 12
10 1 8 5 13
11 1 11 5 13
12 1 8 17 15
13 1 8 17 16
14 1 8 17 18
15 1 5 8 19
16 1 14 8 19
17 1 17 8 19
18 1 8 14 21
19 1 20 14 21
20 1 8 14 22
21 1 20 14 22
22 1 24 29 26
23 1 25 29 26
24 1 26 29 27
25 1 5 11 28
26 1 23 11 28
27 1 26 11 28
28 1 11 26 30
29 1 29 26 30
30 1 11 26 31
31 1 29 26 31
32 1 3 20 4
33 1 3 20 6
34 1 4 20 6
35 1 9 23 10
36 1 9 23 12
37 1 10 23 12
38 1 15 17 16
39 1 15 17 18
40 1 16 17 18
41 1 21 14 22
42 1 24 29 25
43 1 24 29 27
44 1 25 29 27
45 1 30 26 31
46 1 35 32 36
47 1 35 32 37
48 1 36 32 37
49 1 5 8 14
50 1 5 8 17
51 1 5 11 23
52 1 5 11 26
53 1 8 5 11
54 1 8 14 20
55 1 11 26 29
56 1 14 8 17
57 1 23 11 26
58 1 33 32 35
59 1 33 32 36
60 1 33 32 37
61 2 32 33 34
62 3 2 1 5
63 3 2 1 7
64 3 5 1 7

Dihedrals

1 1 1 5 8 14
2 1 1 5 8 17
3 1 1 5 11 23
4 1 1 5 11 26
5 1 1 5 8 19
6 1 1 5 11 28
7 1 3 20 14 8
8 1 4 20 14 8
9 1 6 20 14 8
10 1 5 11 23 9
11 1 9 23 11 26
12 1 5 11 23 10
13 1 10 23 11 26
14 1 5 11 23 12
15 1 12 23 11 26
16 1 13 5 8 14
17 1 13 5 8 17
18 1 13 5 11 23
19 1 13 5 11 26
20 1 5 8 17 15
21 1 14 8 17 15
22 1 5 8 17 16
23 1 14 8 17 16
24 1 5 8 17 18
25 1 14 8 17 18
26 1 11 5 8 19
27 1 19 8 14 20
28 1 5 8 14 21
29 1 17 8 14 21
30 1 5 8 14 22
31 1 17 8 14 22
32 1 11 26 29 24
33 1 11 26 29 25
34 1 11 26 29 27
35 1 8 5 11 28
36 1 28 11 26 29
37 1 5 11 26 30
38 1 23 11 26 30
39 1 5 11 26 31
40 1 23 11 26 31
41 1 3 20 14 21
42 1 3 20 14 22
43 1 4 20 14 21
44 1 4 20 14 22
45 1 6 20 14 21
46 1 6 20 14 22
47 1 9 23 11 28
48 1 10 23 11 28
49 1 12 23 11 28
50 1 13 5 8 19
51 1 13 5 11 28
52 1 15 17 8 19
53 1 16 17 8 19
54 1 18 17 8 19
55 1 19 8 14 21
56 1 19 8 14 22
57 1 24 29 26 30
58 1 24 29 26 31
59 1 25 29 26 30
60 1 25 29 26 31
61 1 27 29 26 30
62 1 27 29 26 31
63 1 28 11 26 30
64 1 28 11 26 31
65 1 5 8 14 20
66 1 5 11 26 29
67 1 8 5 11 23
68 1 8 5 11 26
69 1 11 5 8 14
70 1 11 5 8 17
71 1 17 8 14 20
72 1 23 11 26 29
73 2 34 33 32 35
74 2 34 33 32 36
75 2 34 33 32 37
76 3 2 1 5 8
77 3 2 1 5 11
78 3 2 1 5 13
79 4 7 1 5 8
80 4 7 1 5 11
81 4 7 1 5 13

Impropers

1 1 1 2 5 7
