LAMMPS Description

     24  atoms
     23  bonds
     37  angles
     44  dihedrals
     6  impropers

     107  atom types
     1176  bond types
     30  angle types
     17576  dihedral types
     3  improper types

  0.0 25.0 xlo xhi
  0.0 25.0 ylo yhi
  0.0 25.0 zlo zhi

Masses

1 1.008  # H
2 1.008  # H_HB
3 12.011  # C_3
4 16.043  # C_34
5 15.035  # C_33
6 14.027  # C_32
7 13.019  # C_31
8 12.011  # C_R
9 13.019  # C_R1
10 12.011  # C_R_b1
11 13.019  # C_R1_b1
12 12.011  # C_2
13 12.011  # C_2_b1
14 12.011  # C_2_b2
15 12.011  # C_1
16 12.011  # C_1_b1
17 14.007  # N_3
18 14.007  # N_3_ha
19 14.007  # N_3_hd
20 14.007  # N_R_d1
21 14.007  # N_R_d1_ha
22 14.007  # N_R_d2
23 14.007  # N_R_d2_ha
24 14.007  # N_R_d2_hd
25 14.007  # N_R_b1_d2
26 14.007  # N_R_b1_d2_ha
27 14.007  # N_R_b1_d2_hd
28 14.007  # N_2_d1
29 14.007  # N_2_d1_ha
30 14.007  # N_2_d1_hd
31 14.007  # N_2_b1_d1
32 14.007  # N_2_b1_d1_ha
33 14.007  # N_2_b2_d1
34 14.007  # N_2_b2_d1_ha
35 14.007  # N_2_d2
36 14.007  # N_2_d2_hd
37 14.007  # N_2_d2_ha
38 14.007  # N_2_b1_d2
39 14.007  # N_2_b1_d2_hd
40 14.007  # N_2_b1_d2_ha
41 14.007  # N_2_b2_d2
42 14.007  # N_2_b2_d2_hd
43 14.007  # N_2_b2_d2_ha
44 14.007  # N_1
45 14.007  # N_1_ha
46 15.999  # O_3
47 15.999  # O_3_hd
48 15.999  # O_3_ha
49 15.999  # O_R
50 15.999  # O_R_ha
51 15.999  # O_2
52 15.999  # O_2_ha
53 15.999  # O_2_b1
54 15.999  # O_2_b1_ha
55 15.999  # O_2_b1_hd
56 15.999  # O_2_b2
57 15.999  # O_2_b2_ha
58 15.999  # O_1
59 15.999  # O_1_ha
60 1.008  # H_B
61 10.81  # B_3
62 10.81  # B_2_d1
63 10.81  # B_2_d2
64 10.81  # B_2_b1_d1
65 10.81  # B_2_b1_d2
66 10.81  # B_2_b2_d1
67 10.81  # B_2_b2_d2
68 18.998  # F
69 18.998  # F_hd
70 18.998  # F_ha
71 34.45  # Cl
72 79.904  # Br
73 126.904  # I
74 26.982  # Al_3_d1
75 26.982  # Al_3_d2
76 28.085  # Si_3
77 30.974  # P_3_d2
78 30.974  # P_3_d3
79 30.974  # P_3_d4
80 32.06  # S_3
81 69.723  # Ga_3
82 72.63  # Ge_3_d1
83 72.63  # Ge_3_d2
84 72.63  # Ge_3_d3
85 74.922  # As_3_d1
86 74.922  # As_3_d2
87 74.922  # As_3_d3
88 74.922  # As_3_d4
89 78.971  # Se_3_d1
90 78.971  # Se_3_d2
91 78.971  # Se_3_d3
92 78.971  # Se_3_d5
93 114.818  # In_3_d1
94 114.818  # In_3_d2
95 118.71  # Sn_3_d2
96 118.71  # Sn_3_d3
97 121.76  # Sb_3_d2
98 121.76  # Sb_3_d3
99 121.76  # Sb_3_d4
100 127.6  # Te_3_d1
101 127.6  # Te_3_d2
102 127.6  # Te_3_d3
103 127.6  # Te_3_d5
104 22.99  # Na
105 40.078  # Ca
106 55.845  # Fe
107 65.38  # Zn

Atoms  # full

1 1 8 -0.131577816065071 -2.049 0.7985 -0.0037
2 1 8 -0.100020855333611 -2.0568 -0.5951 -0.001
3 1 8 -0.1056445929303 -0.854 -1.2999 0.0021
4 1 8 -0.168785094987836 0.366 0.7851 0.0009
5 1 1 0.15266507090014 -2.9887 1.3458 -0.0071
6 1 8 -0.0923358110907342 0.3569 -0.6098 0.0039
7 1 1 0.101777478011072 -3.0023 -1.1326 -0.0018
8 1 1 0.0999771094191085 -0.8609 -2.3873 0.0051
9 1 8 0.293857275269778 -0.8379 1.4898 -0.003
10 1 1 0.114785448488386 1.3142 1.3166 0.0023
11 1 1 0.0985134524084317 1.2953 -1.1589 0.007
12 1 2 0.300214349652041 0.0785 3.1845 -0.0054
13 1 55 -0.648463811809114 -0.837 2.8524 -0.005
14 1 3 -0.338042712195707 5.6772 3.8971 -0.131
15 1 3 -0.162172737998464 6.912 4.7846 0.1112
16 1 1 0.121335942665521 8.3788 3.5696 -0.9473
17 1 1 0.114480467777901 9.0673 4.5922 0.324
18 1 1 0.121966634115072 8.1733 3.1266 0.7583
19 1 1 0.110926360170202 4.7695 4.5047 -0.1311
20 1 1 0.118137414572362 5.7496 3.3868 -1.0943
21 1 1 0.116004996113406 5.5853 3.1444 0.6556
22 1 3 -0.332064551054369 8.2141 3.9642 0.0581
23 1 1 0.107493625725524 6.9494 5.5738 -0.6436
24 1 1 0.106972358176262 6.8245 5.2669 1.0876

Bonds

1 231 1 2
2 211 1 5
3 231 1 9
4 231 2 3
5 211 2 7
6 231 3 6
7 211 3 8
8 231 4 6
9 231 4 9
10 211 4 10
11 211 6 11
12 549 9 13
13 530 12 13
14 210 14 15
15 191 14 19
16 191 14 20
17 191 14 21
18 210 15 22
19 191 15 23
20 191 15 24
21 191 16 22
22 191 17 22
23 191 18 22

Angles

1 5 14 15 22
2 5 14 15 23
3 5 14 15 24
4 5 15 14 19
5 5 15 14 20
6 5 15 14 21
7 5 15 22 16
8 5 15 22 17
9 5 15 22 18
10 5 22 15 23
11 5 22 15 24
12 5 16 22 17
13 5 16 22 18
14 5 17 22 18
15 5 19 14 20
16 5 19 14 21
17 5 20 14 21
18 5 23 15 24
19 28 9 13 12
20 30 1 2 3
21 30 1 9 4
22 30 2 1 9
23 30 2 3 6
24 30 3 6 4
25 30 6 4 9
26 30 1 2 7
27 30 2 1 5
28 30 2 3 8
29 30 3 2 7
30 30 3 6 11
31 30 4 6 11
32 30 6 3 8
33 30 6 4 10
34 30 5 1 9
35 30 9 4 10
36 30 1 9 13
37 30 4 9 13

Dihedrals

1 996 14 15 22 16
2 996 14 15 22 17
3 996 14 15 22 18
4 996 19 14 15 22
5 996 20 14 15 22
6 996 21 14 15 22
7 996 16 22 15 23
8 996 16 22 15 24
9 996 17 22 15 23
10 996 17 22 15 24
11 996 18 22 15 23
12 996 18 22 15 24
13 996 19 14 15 23
14 996 19 14 15 24
15 996 20 14 15 23
16 996 20 14 15 24
17 996 21 14 15 23
18 996 21 14 15 24
19 1504 1 2 3 6
20 1504 1 9 4 6
21 1504 2 1 9 4
22 1504 2 3 6 4
23 1504 3 2 1 9
24 1504 3 6 4 9
25 1504 1 2 3 8
26 1504 1 9 4 10
27 1504 2 3 6 11
28 1504 3 2 1 5
29 1504 3 6 4 10
30 1504 4 6 3 8
31 1504 4 9 1 5
32 1504 6 3 2 7
33 1504 7 2 1 9
34 1504 9 4 6 11
35 1504 2 1 9 13
36 1504 6 4 9 13
37 1504 5 1 2 7
38 1504 7 2 3 8
39 1504 8 3 6 11
40 1504 10 4 6 11
41 1504 5 1 9 13
42 1504 10 4 9 13
43 1671 1 9 13 12
44 1671 4 9 13 12

Impropers

1 2 1 2 5 9
2 2 2 1 3 7
3 2 3 2 6 8
4 2 4 6 9 10
5 2 6 3 4 11
6 2 9 1 4 13

