LAMMPS Description

10 atoms
7 bonds
12 angles
9 dihedrals
0 impropers

2 atom types
2 bond types
1 angle types
1 dihedral types
0 improper types

0.0 25.0 xlo xhi
0.0 25.0 ylo yhi
0.0 25.0 zlo zhi

Masses

1 1.008  # H
2 12.011  # C_3

Atoms

1 1 2 -0.317363693643009 -2.4684 0.9114 0.0037
2 1 2 -0.317536107647895 -0.934 0.8237 0.0026
3 1 1 0.105368019706734 -0.588 0.2056 -0.8285
4 1 1 0.104748429180615 -0.4971 1.8187 -0.1
5 1 1 0.105350834880914 -0.577 0.3828 0.936
6 1 1 0.105257391705207 -2.8249 1.3537 -0.9294
7 1 1 0.105535529698706 -2.9062 -0.0839 0.1055
8 1 1 0.105293855307971 -2.814 1.5296 0.835
9 1 1 0.000858809314215225 1.0298 3.8441 0.1585
10 1 1 0.00248693149654192 0.2669 4.216 -0.5412

Bonds

1 2 1 2
2 1 1 6
3 1 1 7
4 1 1 8
5 1 2 3
6 1 2 4
7 1 2 5

Angles

1 1 1 2 3
2 1 1 2 4
3 1 1 2 5
4 1 2 1 6
5 1 2 1 7
6 1 2 1 8
7 1 3 2 4
8 1 3 2 5
9 1 4 2 5
10 1 6 1 7
11 1 6 1 8
12 1 7 1 8

Dihedrals

1 1 3 2 1 6
2 1 3 2 1 7
3 1 3 2 1 8
4 1 4 2 1 6
5 1 4 2 1 7
6 1 4 2 1 8
7 1 5 2 1 6
8 1 5 2 1 7
9 1 5 2 1 8
