LAMMPS Description

37 atoms
37 bonds
70 angles
101 dihedrals
3 impropers

9 atom types
9 bond types
3 angle types
8 dihedral types
1 improper types

0.0 25.0 xlo xhi
0.0 25.0 ylo yhi
0.0 25.0 zlo zhi

Masses

1 1.008  # H
2 1.008  # H_HB
3 12.011  # C_3
4 12.011  # C_2_b1
5 14.007  # N_3_hd
6 14.007  # N_2_b1_d1_ha
7 14.007  # N_2_b1_d2_hd
8 14.007  # N_2_b1_d2_ha
9 15.999  # O_2_ha

Atoms

1 1 4 0.472097302734237 -1.2354 -0.0563 1.8222
2 1 3 -0.254771383081288 -2.0937 0.4598 0.7033
3 1 8 -0.413365765385717 -0.5504 -1.27 1.797
4 1 1 0.0918688208472997 0.3332 -2.4183 0.2293
5 1 1 0.095029236110261 -0.9691 -3.2246 1.1658
6 1 1 0.0845051545672176 -1.7078 -3.08 -0.9675
7 1 1 0.109264100167544 -1.4268 -1.3529 -1.2101
8 1 9 -0.406226329638722 0.4502 -0.8559 3.8032
9 1 3 -0.173967652879839 -3.3467 -0.3685 0.4018
10 1 1 0.146965774071687 -2.4427 1.4924 0.9313
11 1 1 0.123983589719522 -1.4522 0.5567 -0.1956
12 1 3 -0.178359397633423 -3.0949 -1.8535 0.1318
13 1 1 0.118027739466983 -4.1192 -0.2754 1.1962
14 1 1 0.0934971738607007 -3.7677 0.0874 -0.522
15 1 3 -0.206999468315824 -1.6993 -2.1012 -0.4379
16 1 1 0.123116236700678 -3.2081 -2.4563 1.0603
17 1 1 0.0885180638979356 -3.8877 -2.1954 -0.5693
18 1 3 -0.0647824476604492 -0.6621 -2.2645 0.6992
19 1 9 -0.41098951621113 -1.1254 0.701 2.7779
20 1 4 0.446635351076396 0.29 -1.6156 2.8566
21 1 3 -0.266326898200508 1.0146 -2.9618 2.9154
22 1 5 -0.37540993292964 5.4475 -0.6455 3.814
23 1 1 0.0940049132887707 6.2859 -2.3975 2.9875
24 1 1 0.0941043291760502 5.8545 -2.4967 4.732
25 1 1 0.0881511521237627 4.3199 -3.822 3.3309
26 1 1 0.136690706400624 3.8571 -2.3664 2.3716
27 1 3 -0.0850444040866346 5.5268 -2.101 3.7451
28 1 3 -0.168953528124264 1.8056 -3.2298 4.2136
29 1 1 0.104455622799635 0.2372 -3.7527 2.8881
30 1 1 0.112658668621452 1.6772 -3.0915 2.0358
31 1 3 -0.167650971819714 3.0883 -2.403 4.4212
32 1 1 0.139427830752001 1.1245 -3.071 5.0779
33 1 1 0.086610889598385 2.0993 -4.3025 4.2231
34 1 3 -0.194647617340228 4.1723 -2.7207 3.3758
35 1 1 0.205392002486003 2.8709 -1.3142 4.4379
36 1 1 0.106157966502323 3.4848 -2.6868 5.4206
37 1 2 0.206332688337914 6.3831 -0.2796 4.1

Bonds

1 2 1 2
2 7 1 3
3 9 1 19
4 3 2 9
5 1 2 10
6 1 2 11
7 8 3 18
8 7 3 20
9 9 8 20
10 3 9 12
11 1 9 13
12 1 9 14
13 3 12 15
14 1 12 16
15 1 12 17
16 1 6 15
17 1 7 15
18 3 15 18
19 1 4 18
20 1 5 18
21 2 20 21
22 3 21 28
23 1 21 29
24 1 21 30
25 5 22 27
26 4 22 37
27 1 23 27
28 1 24 27
29 3 27 34
30 3 28 31
31 1 28 32
32 1 28 33
33 3 31 34
34 1 31 35
35 1 31 36
36 1 25 34
37 1 26 34

Angles

1 1 1 2 9
2 1 20 21 28
3 1 1 2 10
4 1 1 2 11
5 1 20 21 29
6 1 20 21 30
7 1 2 9 12
8 1 9 12 15
9 1 12 15 18
10 1 21 28 31
11 1 27 34 31
12 1 28 31 34
13 1 2 9 13
14 1 2 9 14
15 1 9 2 10
16 1 9 2 11
17 1 9 12 16
18 1 9 12 17
19 1 12 9 13
20 1 12 9 14
21 1 6 15 12
22 1 7 15 12
23 1 15 12 16
24 1 15 12 17
25 1 4 18 15
26 1 5 18 15
27 1 6 15 18
28 1 7 15 18
29 1 21 28 32
30 1 21 28 33
31 1 25 34 27
32 1 26 34 27
33 1 28 21 29
34 1 28 21 30
35 1 28 31 35
36 1 28 31 36
37 1 31 28 32
38 1 31 28 33
39 1 25 34 31
40 1 26 34 31
41 1 23 27 34
42 1 24 27 34
43 1 34 31 35
44 1 34 31 36
45 1 3 18 15
46 1 3 18 4
47 1 3 18 5
48 1 4 18 5
49 1 6 15 7
50 1 10 2 11
51 1 13 9 14
52 1 16 12 17
53 1 23 27 24
54 1 25 34 26
55 1 29 21 30
56 1 32 28 33
57 1 35 31 36
58 1 22 27 23
59 1 22 27 24
60 1 22 27 34
61 2 27 22 37
62 3 1 3 18
63 3 18 3 20
64 3 1 3 20
65 3 2 1 3
66 3 3 20 21
67 3 2 1 19
68 3 8 20 21
69 3 3 1 19
70 3 3 20 8

Dihedrals

1 1 1 2 9 12
2 1 20 21 28 31
3 1 1 2 9 13
4 1 1 2 9 14
5 1 20 21 28 32
6 1 20 21 28 33
7 1 2 9 12 15
8 1 9 12 15 18
9 1 21 28 31 34
10 1 27 34 31 28
11 1 2 9 12 16
12 1 2 9 12 17
13 1 6 15 12 9
14 1 7 15 12 9
15 1 10 2 9 12
16 1 11 2 9 12
17 1 4 18 15 12
18 1 5 18 15 12
19 1 13 9 12 15
20 1 14 9 12 15
21 1 16 12 15 18
22 1 17 12 15 18
23 1 21 28 31 35
24 1 21 28 31 36
25 1 27 34 31 35
26 1 27 34 31 36
27 1 25 34 31 28
28 1 26 34 31 28
29 1 29 21 28 31
30 1 30 21 28 31
31 1 23 27 34 31
32 1 24 27 34 31
33 1 32 28 31 34
34 1 33 28 31 34
35 1 3 18 15 12
36 1 3 18 15 6
37 1 3 18 15 7
38 1 4 18 15 6
39 1 4 18 15 7
40 1 5 18 15 6
41 1 5 18 15 7
42 1 6 15 12 16
43 1 6 15 12 17
44 1 7 15 12 16
45 1 7 15 12 17
46 1 10 2 9 13
47 1 10 2 9 14
48 1 11 2 9 13
49 1 11 2 9 14
50 1 13 9 12 16
51 1 13 9 12 17
52 1 14 9 12 16
53 1 14 9 12 17
54 1 23 27 34 25
55 1 23 27 34 26
56 1 24 27 34 25
57 1 24 27 34 26
58 1 25 34 31 35
59 1 25 34 31 36
60 1 26 34 31 35
61 1 26 34 31 36
62 1 29 21 28 32
63 1 29 21 28 33
64 1 30 21 28 32
65 1 30 21 28 33
66 1 32 28 31 35
67 1 32 28 31 36
68 1 33 28 31 35
69 1 33 28 31 36
70 1 22 27 34 31
71 1 22 27 34 25
72 1 22 27 34 26
73 2 23 27 22 37
74 2 24 27 22 37
75 2 34 27 22 37
76 3 3 1 2 9
77 3 3 20 21 28
78 3 3 1 2 10
79 3 3 1 2 11
80 3 3 20 21 29
81 3 3 20 21 30
82 3 8 20 21 28
83 3 9 2 1 19
84 3 8 20 21 29
85 3 8 20 21 30
86 3 10 2 1 19
87 3 11 2 1 19
88 5 1 3 18 15
89 5 15 18 3 20
90 5 1 3 18 4
91 5 1 3 18 5
92 5 4 18 3 20
93 5 5 18 3 20
94 7 1 3 20 8
95 7 19 1 3 20
96 7 1 3 20 21
97 7 2 1 3 20
98 7 2 1 3 18
99 7 18 3 20 21
100 7 18 3 1 19
101 7 8 20 3 18

Impropers

1 1 1 2 3 19
2 1 20 3 8 21
3 1 3 1 18 20
