LAMMPS Description

37 atoms
37 bonds
70 angles
99 dihedrals
3 impropers

9 atom types
9 bond types
3 angle types
8 dihedral types
1 improper types

0.0 25.0 xlo xhi
0.0 25.0 ylo yhi
0.0 25.0 zlo zhi

Masses

1 1.008  # H
2 1.008  # H_HB
3 12.011  # C_3
4 12.011  # C_2_b1
5 14.007  # N_3_hd
6 14.007  # N_2_b1_d1_ha
7 14.007  # N_2_b1_d2_hd
8 14.007  # N_2_b1_d2_ha
9 15.999  # O_2_ha

Atoms

1 1 4 0.428460564419724 -2.6355 0.5086 0.4305
2 1 3 -0.24887353354954 -3.7598 -0.0378 -0.3928
3 1 6 -0.265931055238058 -1.4471 -0.1395 0.609
4 1 1 0.107988125932734 -0.1711 -1.4026 -0.5012
5 1 1 0.108904158650988 -0.7127 -2.0097 1.0889
6 1 1 0.0905085414884526 -1.6391 -3.4015 -0.5217
7 1 1 0.116052670667748 -2.3602 -2.1272 -1.5263
8 1 9 -0.492998307016574 3.90297 0.49479 4.78053
9 1 3 -0.175306385630838 -4.3657 -1.346 0.1266
10 1 1 0.152135224790198 -4.5821 0.7078 -0.466
11 1 1 0.128252065792833 -3.3757 -0.1747 -1.4248
12 1 3 -0.179368675614249 -3.3687 -2.4858 0.3908
13 1 1 0.122302158562871 -4.9762 -1.1901 1.0426
14 1 1 0.0987494456125577 -5.0608 -1.6689 -0.6802
15 1 3 -0.204160838709831 -2.1117 -2.3957 -0.4787
16 1 1 0.123318841213902 -3.0516 -2.5001 1.4571
17 1 1 0.0942931498153278 -3.9144 -3.4374 0.2085
18 1 3 -0.0927244768278198 -1.051 -1.4777 0.1721
19 1 9 -0.446683996583562 -2.7754 1.6214 0.9165
20 1 4 0.506202467664786 4.04287 -0.61801 4.29453
21 1 3 -0.260030333107238 2.91857 -1.16441 3.47123
22 1 7 -0.544769672033664 5.23127 -1.26611 4.47303
23 1 1 0.097294930462172 6.50727 -2.52921 3.36283
24 1 1 0.102232243385628 5.96567 -3.13631 4.95293
25 1 1 0.0927934561250844 5.03927 -4.52811 3.34233
26 1 1 0.11295315581982 4.31817 -3.25381 2.33773
27 1 2 0.285806355476206 5.95627 -0.75791 5.00333
28 1 3 -0.17539069664023 2.31267 -2.47261 3.99063
29 1 1 0.167711937745357 2.09627 -0.41881 3.39803
30 1 1 0.129313070820848 3.30267 -1.30131 2.43923
31 1 3 -0.178770156946361 3.30967 -3.61241 4.25483
32 1 1 0.121644441095411 1.70217 -2.31671 4.90663
33 1 1 0.0954342947688656 1.61757 -2.79551 3.18383
34 1 3 -0.208117560769678 4.56667 -3.52231 3.38533
35 1 1 0.127626494713562 3.62677 -3.62671 5.32113
36 1 1 0.090854968024483 2.76397 -4.56401 4.07253
37 1 3 -0.0277070743819139 5.62737 -2.60431 4.03613

Bonds

1 2 1 2
2 7 1 3
3 9 1 19
4 3 2 9
5 1 2 10
6 1 2 11
7 8 3 18
8 9 8 20
9 3 9 12
10 1 9 13
11 1 9 14
12 3 12 15
13 1 12 16
14 1 12 17
15 1 6 15
16 1 7 15
17 3 15 18
18 1 4 18
19 1 5 18
20 2 20 21
21 7 20 22
22 3 21 28
23 1 21 29
24 1 21 30
25 6 22 27
26 8 22 37
27 3 28 31
28 1 28 32
29 1 28 33
30 3 31 34
31 1 31 35
32 1 31 36
33 1 25 34
34 1 26 34
35 3 34 37
36 1 23 37
37 1 24 37

Angles

1 1 1 2 9
2 1 20 21 28
3 1 1 2 10
4 1 1 2 11
5 1 20 21 29
6 1 20 21 30
7 1 2 9 12
8 1 9 12 15
9 1 12 15 18
10 1 21 28 31
11 1 28 31 34
12 1 31 34 37
13 1 2 9 13
14 1 2 9 14
15 1 9 2 10
16 1 9 2 11
17 1 9 12 16
18 1 9 12 17
19 1 12 9 13
20 1 12 9 14
21 1 6 15 12
22 1 7 15 12
23 1 15 12 16
24 1 15 12 17
25 1 4 18 15
26 1 5 18 15
27 1 6 15 18
28 1 7 15 18
29 1 21 28 32
30 1 21 28 33
31 1 28 21 29
32 1 28 21 30
33 1 28 31 35
34 1 28 31 36
35 1 31 28 32
36 1 31 28 33
37 1 25 34 31
38 1 26 34 31
39 1 34 31 35
40 1 34 31 36
41 1 23 37 34
42 1 24 37 34
43 1 25 34 37
44 1 26 34 37
45 1 3 18 15
46 1 3 18 4
47 1 3 18 5
48 1 4 18 5
49 1 6 15 7
50 1 10 2 11
51 1 13 9 14
52 1 16 12 17
53 1 23 37 24
54 1 25 34 26
55 1 29 21 30
56 1 32 28 33
57 1 35 31 36
58 1 22 37 34
59 1 22 37 23
60 1 22 37 24
61 3 1 3 18
62 3 2 1 3
63 3 2 1 19
64 3 8 20 21
65 3 3 1 19
66 3 8 20 22
67 3 20 22 27
68 3 20 22 37
69 3 21 20 22
70 3 27 22 37

Dihedrals

1 1 1 2 9 12
2 1 20 21 28 31
3 1 1 2 9 13
4 1 1 2 9 14
5 1 20 21 28 32
6 1 20 21 28 33
7 1 2 9 12 15
8 1 9 12 15 18
9 1 21 28 31 34
10 1 28 31 34 37
11 1 2 9 12 16
12 1 2 9 12 17
13 1 6 15 12 9
14 1 7 15 12 9
15 1 10 2 9 12
16 1 11 2 9 12
17 1 4 18 15 12
18 1 5 18 15 12
19 1 13 9 12 15
20 1 14 9 12 15
21 1 16 12 15 18
22 1 17 12 15 18
23 1 21 28 31 35
24 1 21 28 31 36
25 1 25 34 31 28
26 1 26 34 31 28
27 1 29 21 28 31
28 1 30 21 28 31
29 1 23 37 34 31
30 1 24 37 34 31
31 1 32 28 31 34
32 1 33 28 31 34
33 1 35 31 34 37
34 1 36 31 34 37
35 1 3 18 15 12
36 1 3 18 15 6
37 1 3 18 15 7
38 1 4 18 15 6
39 1 4 18 15 7
40 1 5 18 15 6
41 1 5 18 15 7
42 1 6 15 12 16
43 1 6 15 12 17
44 1 7 15 12 16
45 1 7 15 12 17
46 1 10 2 9 13
47 1 10 2 9 14
48 1 11 2 9 13
49 1 11 2 9 14
50 1 13 9 12 16
51 1 13 9 12 17
52 1 14 9 12 16
53 1 14 9 12 17
54 1 23 37 34 25
55 1 23 37 34 26
56 1 24 37 34 25
57 1 24 37 34 26
58 1 25 34 31 35
59 1 25 34 31 36
60 1 26 34 31 35
61 1 26 34 31 36
62 1 29 21 28 32
63 1 29 21 28 33
64 1 30 21 28 32
65 1 30 21 28 33
66 1 32 28 31 35
67 1 32 28 31 36
68 1 33 28 31 35
69 1 33 28 31 36
70 1 22 37 34 31
71 1 22 37 34 25
72 1 22 37 34 26
73 3 3 1 2 9
74 3 3 1 2 10
75 3 3 1 2 11
76 3 8 20 21 28
77 3 9 2 1 19
78 3 8 20 21 29
79 3 8 20 21 30
80 3 10 2 1 19
81 3 11 2 1 19
82 3 22 20 21 28
83 3 22 20 21 29
84 3 22 20 21 30
85 4 1 3 18 15
86 4 1 3 18 4
87 4 1 3 18 5
88 5 20 22 37 34
89 5 20 22 37 23
90 5 20 22 37 24
91 6 2 1 3 18
92 6 18 3 1 19
93 7 8 20 22 27
94 7 21 20 22 27
95 7 8 20 22 37
96 7 21 20 22 37
97 8 27 22 37 34
98 8 23 37 22 27
99 8 24 37 22 27

Impropers

1 1 1 2 3 19
2 1 20 8 21 22
3 1 22 20 27 37
