LAMMPS Description

80 atoms
83 bonds
148 angles
204 dihedrals
20 impropers

8 atom types
12 bond types
4 angle types
10 dihedral types
2 improper types

0.0 25.0 xlo xhi
0.0 25.0 ylo yhi
0.0 25.0 zlo zhi

Masses

1 1.008  # H
2 1.008  # H_HB
3 12.011  # C_3
4 12.011  # C_R
5 14.007  # N_2_d2_hd
6 15.999  # O_3_hd
7 15.999  # O_3_ha
8 15.999  # O_2_ha

Atoms

1 1 4 0.240469520209046 -2.2295 1.414 -0.2266
2 1 4 -0.0545741551282441 -1.0295 1.9332 -0.745
3 1 4 -0.142292234786812 -1.3552 -0.8221 -0.4234
4 1 4 -0.0300999073184705 -2.3909 0.0326 -0.0578
5 1 2 0.281935646263633 -4.1664 1.8561 0.3103
6 1 4 -0.0234763197965469 -0.1535 -0.3293 -0.9271
7 1 1 0.127064571349404 -5.0377 0.1606 -1.0162
8 1 1 0.138609492174237 15.8859 5.8714 -7.1222
9 1 4 0.158056228375133 0.0256 1.0558 -1.0714
10 1 1 0.125518463496652 -0.7192 3.9457 -0.0026
11 1 1 0.111334783633949 -1.4808 -1.8949 -0.2979
12 1 1 0.122228789844177 1.0966 -2.2035 0.7408
13 1 3 -0.318399522878554 -0.9047 3.4457 -0.9558
14 1 1 0.134674004410452 -0.1016 3.7093 -1.6451
15 1 1 0.115120920783486 -1.8207 3.857 -1.3856
16 1 3 -0.192318823416294 0.9439 -1.3414 -1.2526
17 1 1 0.107025974032002 2.5404 -2.4345 -0.2587
18 1 1 0.144367563634243 2.2015 -0.8494 0.4589
19 1 3 -0.329187124375793 1.747 -1.7306 0.0013
20 1 1 0.105706695645669 0.491 -2.2426 -1.674
21 1 1 0.102516731433111 1.6232 -0.9622 -2.0179
22 1 3 -0.185501228247195 -3.6705 -0.5762 0.5145
23 1 1 0.127851291399192 -4.382 -1.4532 -1.3475
24 1 1 0.106176840185242 -5.6409 -1.2425 -0.1193
25 1 3 -0.330401939899168 -4.7505 -0.7901 -0.5615
26 1 1 0.108775655715949 -3.4429 -1.5393 0.9775
27 1 1 0.118705912510537 -4.0709 0.0538 1.3123
28 1 5 -0.497802142931044 1.2364 1.5237 -1.5346
29 1 2 0.363857400619618 5.2183 1.9899 0.2921
30 1 5 -0.746377006191589 -3.2538 2.2558 0.1205
31 1 2 0.280000753996278 -3.2072 3.2262 -0.1703
32 1 4 0.011817757646549 10.6252 3.1421 -6.1284
33 1 4 -0.108503156933463 11.0092 4.3208 -5.4723
34 1 4 0.273293178470972 13.3062 3.9896 -6.1337
35 1 1 0.0987403417331983 7.5276 4.6894 -4.9164
36 1 8 -0.5219987322944 14.5892 4.4662 -6.3048
37 1 8 -0.525982979140724 5.7208 1.8924 -1.8238
38 1 4 -0.147352156058865 7.4947 1.1979 -3.2713
39 1 1 0.111159619368826 10.262 4.9536 -5.0026
40 1 4 0.27144319075961 6.6258 2.1897 -2.8265
41 1 4 -0.154182304415607 12.3369 4.75 -5.4856
42 1 1 0.110990574650298 8.993 0.6319 -4.6797
43 1 4 -0.158328090843439 6.6867 3.4562 -3.4047
44 1 4 -0.109268427172829 8.3527 1.4419 -4.3439
45 1 1 0.101578569996167 11.4068 1.4192 -7.2116
46 1 4 -0.116122588911579 7.5401 3.6962 -4.4809
47 1 1 0.130037010158608 12.6029 5.6994 -5.0275
48 1 1 0.137698132440717 7.4766 0.215 -2.8066
49 1 4 0.00982719562412333 8.3487 2.6769 -5.0106
50 1 4 -0.151792363842353 12.962 2.7669 -6.6982
51 1 1 0.121452629290257 6.0543 4.2595 -3.0376
52 1 1 0.11992418443792 7.4805 3.8916 -7.3738
53 1 1 0.115878310746966 8.6994 4.9934 -6.7224
54 1 3 0.0421466903623544 9.123 2.8517 -6.3429
55 1 1 0.126329630551337 9.049 4.0699 -8.169
56 1 1 0.13635934608407 13.7198 2.1659 -7.1951
57 1 3 -0.346936070563824 8.5511 4.0219 -7.1972
58 1 1 0.126157249952672 7.8004 1.4156 -7.3482
59 1 1 0.114400600450091 9.2917 1.7333 -8.2347
60 1 3 -0.347856864120001 8.8718 1.598 -7.2345
61 1 1 0.114244860544884 9.3183 0.6949 -6.8154
62 1 4 -0.11836343207324 11.6336 2.3489 -6.7013
63 1 3 0.099999858754493 3.5697 1.7445 -0.6924
64 1 1 0.122727387389808 4.2716 3.3986 -1.9154
65 1 3 -0.0765414810491735 2.1107 2.251 -0.6059
66 1 1 0.124408774440598 3.5761 0.6524 -0.7416
67 1 1 0.104274707870485 3.8936 1.9164 -2.8385
68 1 1 0.117009398443498 15.1548 4.8282 -10.612
69 1 3 -0.0322685438249249 4.3282 2.3067 -1.9136
70 1 1 0.12076474104624 16.4014 5.6235 -9.5194
71 1 6 -0.622691022440799 4.2712 2.1445 0.4816
72 1 3 -0.0157596295240535 14.8193 5.6315 -7.1407
73 1 3 -0.0764286539926717 15.3562 5.3876 -9.7017
74 1 8 -0.444695085248793 14.4553 6.4619 -9.4541
75 1 1 0.134646099540726 13.4698 4.7636 -8.6757
76 1 3 0.0663692321791156 14.381 5.3466 -8.5711
77 1 1 0.136752661926269 14.2551 6.4816 -6.7477
78 1 2 0.228645760548618 1.7479 0.8496 -2.091
79 1 1 0.158250451985984 1.7479 2.1081 0.4168
80 1 1 0.118176600312983 2.0817 3.3206 -0.8303

Bonds

1 5 1 2
2 5 1 4
3 8 1 30
4 5 2 9
5 4 2 13
6 5 3 4
7 5 3 6
8 3 3 11
9 4 4 22
10 5 6 9
11 4 6 16
12 8 9 28
13 1 10 13
14 1 13 14
15 1 13 15
16 2 16 19
17 1 16 20
18 1 16 21
19 1 12 19
20 1 17 19
21 1 18 19
22 2 22 25
23 1 22 26
24 1 22 27
25 1 7 25
26 1 23 25
27 1 24 25
28 7 28 65
29 6 28 78
30 6 5 30
31 6 30 31
32 5 32 33
33 4 32 54
34 5 32 62
35 3 33 39
36 5 33 41
37 12 34 36
38 5 34 41
39 5 34 50
40 11 36 72
41 12 37 40
42 11 37 69
43 5 38 40
44 5 38 44
45 3 38 48
46 5 40 43
47 3 41 47
48 5 43 46
49 3 43 51
50 3 42 44
51 5 44 49
52 3 35 46
53 5 46 49
54 4 49 54
55 3 50 56
56 5 50 62
57 2 54 57
58 2 54 60
59 1 52 57
60 1 53 57
61 1 55 57
62 1 58 60
63 1 59 60
64 1 60 61
65 3 45 62
66 2 63 65
67 1 63 66
68 2 63 69
69 10 63 71
70 1 65 79
71 1 65 80
72 1 64 69
73 1 67 69
74 9 29 71
75 1 8 72
76 2 72 76
77 1 72 77
78 1 68 73
79 1 70 73
80 11 73 74
81 2 73 76
82 11 74 76
83 1 75 76

Angles

1 1 2 13 10
2 1 2 13 14
3 1 2 13 15
4 1 4 22 26
5 1 4 22 27
6 1 6 16 20
7 1 6 16 21
8 1 4 22 25
9 1 6 16 19
10 1 32 54 57
11 1 32 54 60
12 1 49 54 57
13 1 49 54 60
14 1 7 25 22
15 1 8 72 76
16 1 12 19 16
17 1 16 19 17
18 1 16 19 18
19 1 19 16 20
20 1 19 16 21
21 1 22 25 23
22 1 22 25 24
23 1 25 22 26
24 1 25 22 27
25 1 52 57 54
26 1 53 57 54
27 1 54 57 55
28 1 54 60 58
29 1 54 60 59
30 1 54 60 61
31 1 63 69 64
32 1 65 63 66
33 1 66 63 69
34 1 63 69 67
35 1 68 73 76
36 1 70 73 76
37 1 72 76 75
38 1 73 76 75
39 1 76 72 77
40 1 63 65 79
41 1 63 65 80
42 1 7 25 23
43 1 7 25 24
44 1 8 72 77
45 1 10 13 14
46 1 10 13 15
47 1 12 19 17
48 1 12 19 18
49 1 14 13 15
50 1 17 19 18
51 1 20 16 21
52 1 23 25 24
53 1 26 22 27
54 1 52 57 53
55 1 52 57 55
56 1 53 57 55
57 1 58 60 59
58 1 58 60 61
59 1 59 60 61
60 1 64 69 67
61 1 68 73 70
62 1 79 65 80
63 1 8 72 36
64 1 37 69 64
65 1 37 69 67
66 1 68 73 74
67 1 70 73 74
68 1 74 76 75
69 1 36 72 77
70 1 28 65 63
71 1 28 65 79
72 1 28 65 80
73 1 32 54 49
74 1 36 72 76
75 1 37 69 63
76 1 74 73 76
77 1 72 76 74
78 1 73 76 74
79 1 57 54 60
80 1 65 63 69
81 1 72 76 73
82 1 65 63 71
83 1 69 63 71
84 1 66 63 71
85 2 29 71 63
86 3 1 30 5
87 3 1 30 31
88 3 9 28 78
89 3 5 30 31
90 3 9 28 65
91 3 34 36 72
92 3 40 37 69
93 3 65 28 78
94 3 73 74 76
95 4 1 2 9
96 4 1 4 3
97 4 2 1 4
98 4 2 9 6
99 4 3 6 9
100 4 4 3 6
101 4 32 33 41
102 4 32 62 50
103 4 33 32 62
104 4 33 41 34
105 4 34 50 62
106 4 38 40 43
107 4 38 44 49
108 4 40 38 44
109 4 40 43 46
110 4 41 34 50
111 4 43 46 49
112 4 44 49 46
113 4 1 2 13
114 4 1 4 22
115 4 3 4 22
116 4 3 6 16
117 4 9 2 13
118 4 9 6 16
119 4 33 32 54
120 4 44 49 54
121 4 46 49 54
122 4 54 32 62
123 4 2 1 30
124 4 2 9 28
125 4 4 1 30
126 4 6 9 28
127 4 4 3 11
128 4 6 3 11
129 4 32 33 39
130 4 32 62 45
131 4 33 41 47
132 4 34 41 47
133 4 34 50 56
134 4 38 44 42
135 4 40 38 48
136 4 40 43 51
137 4 39 33 41
138 4 35 46 43
139 4 44 38 48
140 4 46 43 51
141 4 42 44 49
142 4 35 46 49
143 4 45 62 50
144 4 56 50 62
145 4 36 34 41
146 4 36 34 50
147 4 37 40 38
148 4 37 40 43

Dihedrals

1 1 4 22 25 7
2 1 4 22 25 23
3 1 4 22 25 24
4 1 6 16 19 12
5 1 6 16 19 17
6 1 6 16 19 18
7 1 32 54 57 52
8 1 32 54 57 53
9 1 32 54 57 55
10 1 32 54 60 58
11 1 32 54 60 59
12 1 32 54 60 61
13 1 49 54 57 52
14 1 49 54 57 53
15 1 49 54 57 55
16 1 49 54 60 58
17 1 49 54 60 59
18 1 49 54 60 61
19 1 7 25 22 26
20 1 7 25 22 27
21 1 8 72 76 75
22 1 12 19 16 20
23 1 12 19 16 21
24 1 17 19 16 20
25 1 17 19 16 21
26 1 18 19 16 20
27 1 18 19 16 21
28 1 23 25 22 26
29 1 23 25 22 27
30 1 24 25 22 26
31 1 24 25 22 27
32 1 64 69 63 66
33 1 66 63 65 79
34 1 66 63 65 80
35 1 66 63 69 67
36 1 68 73 76 75
37 1 70 73 76 75
38 1 75 76 72 77
39 1 8 72 76 73
40 1 52 57 54 60
41 1 53 57 54 60
42 1 55 57 54 60
43 1 57 54 60 58
44 1 57 54 60 59
45 1 57 54 60 61
46 1 64 69 63 65
47 1 65 63 69 67
48 1 68 73 76 72
49 1 70 73 76 72
50 1 73 76 72 77
51 1 69 63 65 79
52 1 69 63 65 80
53 1 8 72 76 74
54 1 37 69 63 66
55 1 68 73 76 74
56 1 70 73 76 74
57 1 36 72 76 75
58 1 74 73 76 75
59 1 74 76 72 77
60 1 28 65 63 66
61 1 28 65 63 69
62 1 28 65 63 71
63 1 36 72 76 73
64 1 37 69 63 65
65 1 72 76 73 74
66 1 36 72 76 74
67 1 37 69 63 71
68 1 64 69 63 71
69 1 67 69 63 71
70 1 71 63 65 79
71 1 71 63 65 80
72 2 29 71 63 65
73 2 29 71 63 69
74 2 29 71 63 66
75 3 1 2 13 10
76 3 1 2 13 14
77 3 1 2 13 15
78 3 1 4 22 26
79 3 1 4 22 27
80 3 3 4 22 26
81 3 3 4 22 27
82 3 3 6 16 20
83 3 3 6 16 21
84 3 9 2 13 10
85 3 9 2 13 14
86 3 9 2 13 15
87 3 9 6 16 20
88 3 9 6 16 21
89 3 1 4 22 25
90 3 3 4 22 25
91 3 3 6 16 19
92 3 9 6 16 19
93 3 33 32 54 57
94 3 33 32 54 60
95 3 44 49 54 57
96 3 44 49 54 60
97 3 46 49 54 57
98 3 46 49 54 60
99 3 57 54 32 62
100 3 60 54 32 62
101 3 33 32 54 49
102 3 32 54 49 44
103 3 32 54 49 46
104 3 49 54 32 62
105 4 9 28 65 63
106 4 9 28 65 79
107 4 9 28 65 80
108 5 8 72 36 34
109 5 34 36 72 77
110 5 40 37 69 64
111 5 40 37 69 67
112 5 34 36 72 76
113 5 40 37 69 63
114 6 1 2 9 6
115 6 1 4 3 6
116 6 2 1 4 3
117 6 2 9 6 3
118 6 4 1 2 9
119 6 4 3 6 9
120 6 32 33 41 34
121 6 32 62 50 34
122 6 33 32 62 50
123 6 33 41 34 50
124 6 38 40 43 46
125 6 38 44 49 46
126 6 40 38 44 49
127 6 40 43 46 49
128 6 41 33 32 62
129 6 41 34 50 62
130 6 43 40 38 44
131 6 43 46 49 44
132 6 1 2 9 28
133 6 3 4 1 30
134 6 3 6 9 28
135 6 9 2 1 30
136 6 1 4 3 11
137 6 9 6 3 11
138 6 32 33 41 47
139 6 32 62 50 56
140 6 33 32 62 45
141 6 34 41 33 39
142 6 34 50 62 45
143 6 38 40 43 51
144 6 40 38 44 42
145 6 35 46 43 40
146 6 41 34 50 56
147 6 43 40 38 48
148 6 35 46 49 44
149 6 42 44 49 46
150 6 48 38 44 49
151 6 49 46 43 51
152 6 47 41 34 50
153 6 39 33 32 62
154 6 2 1 4 22
155 6 2 9 6 16
156 6 4 1 2 13
157 6 4 3 6 16
158 6 6 3 4 22
159 6 6 9 2 13
160 6 38 44 49 54
161 6 41 33 32 54
162 6 43 46 49 54
163 6 50 62 32 54
164 6 11 3 4 22
165 6 11 3 6 16
166 6 35 46 49 54
167 6 39 33 32 54
168 6 42 44 49 54
169 6 45 62 32 54
170 6 13 2 1 30
171 6 13 2 9 28
172 6 16 6 9 28
173 6 22 4 1 30
174 6 33 41 34 36
175 6 37 40 38 44
176 6 37 40 43 46
177 6 36 34 50 62
178 6 35 46 43 51
179 6 39 33 41 47
180 6 42 44 38 48
181 6 45 62 50 56
182 6 36 34 41 47
183 6 36 34 50 56
184 6 37 40 38 48
185 6 37 40 43 51
186 7 38 40 37 69
187 7 41 34 36 72
188 7 43 40 37 69
189 7 50 34 36 72
190 8 2 1 30 5
191 8 2 1 30 31
192 8 2 9 28 78
193 8 4 1 30 5
194 8 4 1 30 31
195 8 6 9 28 78
196 8 2 9 28 65
197 8 6 9 28 65
198 9 63 65 28 78
199 9 78 28 65 79
200 9 78 28 65 80
201 10 72 76 74 73
202 10 73 74 76 75
203 10 68 73 74 76
204 10 70 73 74 76

Impropers

1 1 28 9 65 78
2 1 30 1 5 31
3 2 1 2 4 30
4 2 9 2 6 28
5 2 2 1 9 13
6 2 4 1 3 22
7 2 6 3 9 16
8 2 32 33 54 62
9 2 49 44 46 54
10 2 3 4 6 11
11 2 33 32 39 41
12 2 38 40 44 48
13 2 41 33 34 47
14 2 43 40 46 51
15 2 44 38 42 49
16 2 46 35 43 49
17 2 50 34 56 62
18 2 62 32 45 50
19 2 34 36 41 50
20 2 40 37 38 43
