LAMMPS Description
17 atoms
16 bonds
27 angles
30 dihedrals
0 impropers
5 atom types
4 bond types
2 angle types
2 dihedral types
0 improper types
0.0 25.0 xlo xhi
0.0 25.0 ylo yhi
0.0 25.0 zlo zhi
0.0 0.0 0.0 xy xz yz

Masses

1 1.008  # H
2 1.008  # H_HB
3 12.011  # C_3
4 15.999  # O_3_hd
5 15.999  # O_3_ha

Atoms

1 1 3 -0.05289733074216555 -0.0622 1.0523 0.3702
2 1 3 -0.024265769166566684 1.2591 0.8827 1.3617
3 1 1 0.1480572227469614 -0.1279 0.1424 -0.232
4 1 4 -0.5662001313416938 2.6615 0.5962 0.7726
5 1 1 0.1450933840004483 1.0304 0.0776 2.0643
6 1 1 0.14605536411774556 -2.832 0.6539 -0.63
7 1 5 -0.4490791775805025 -1.5052 1.3174 0.9253
8 1 1 0.1460510202818027 0.1584 1.8734 -0.3169
9 1 1 0.14368694022621598 1.3355 1.8008 1.9504
10 1 2 0.2850134306805573 3.6079 0.4649 1.2871
11 1 3 -0.052837655367685754 -2.7731 1.5263 0.0258
12 1 4 -0.5662504950369296 -5.5105 1.9856 -0.2643
13 1 2 0.2850183529264199 -6.5506 2.1466 0.0
14 1 3 -0.024242330215114308 -4.2899 1.7582 0.6598
15 1 1 0.14798403565130802 -2.5581 2.3885 -0.6115
16 1 1 0.14507046057799805 -4.2275 2.6169 1.3333
17 1 1 0.1437426782412012 -4.5118 0.8874 1.2817

Bonds

1 2 1 2
2 1 1 3
3 4 2 4
4 1 2 5
5 1 6 11
6 4 1 7
7 1 1 8
8 1 2 9
9 3 4 10
10 4 7 11
11 4 12 14
12 3 12 13
13 2 11 14
14 1 11 15
15 1 14 16
16 1 14 17

Angles

1 1 1 2 4
2 1 11 14 12
3 1 1 2 5
4 1 1 2 9
5 1 2 1 3
6 1 2 1 8
7 1 11 14 16
8 1 11 14 17
9 1 6 11 14
10 1 14 11 15
11 1 2 1 7
12 1 7 11 14
13 1 3 1 7
14 1 6 11 7
15 1 7 1 8
16 1 7 11 15
17 1 3 1 8
18 1 5 2 9
19 1 6 11 15
20 1 16 14 17
21 1 4 2 5
22 1 4 2 9
23 1 12 14 16
24 1 12 14 17
25 2 1 7 11
26 2 2 4 10
27 2 13 12 14

Dihedrals

1 1 3 1 2 4
2 1 6 11 14 12
3 1 4 2 1 8
4 1 12 14 11 15
5 1 3 1 2 5
6 1 3 1 2 9
7 1 5 2 1 8
8 1 6 11 14 16
9 1 6 11 14 17
10 1 8 1 2 9
11 1 15 11 14 16
12 1 15 11 14 17
13 1 4 2 1 7
14 1 7 11 14 12
15 1 5 2 1 7
16 1 7 1 2 9
17 1 7 11 14 16
18 1 7 11 14 17
19 2 1 7 11 6
20 2 1 7 11 15
21 2 3 1 7 11
22 2 8 1 7 11
23 2 1 7 11 14
24 2 2 1 7 11
25 2 1 2 4 10
26 2 11 14 12 13
27 2 5 2 4 10
28 2 9 2 4 10
29 2 13 12 14 16
30 2 13 12 14 17
