LAMMPS Description
25 atoms
23 bonds
40 angles
45 dihedrals
0 impropers
5 atom types
4 bond types
2 angle types
2 dihedral types
0 improper types
0.0 25.0 xlo xhi
0.0 25.0 ylo yhi
0.0 25.0 zlo zhi
0.0 0.0 0.0 xy xz yz

Masses

1 1.008  # H
2 1.008  # H_HB
3 12.011  # C_3
4 15.999  # O_3_hd
5 15.999  # O_3_ha

Atoms

1 1 3 -0.05490601606306848 -0.0608 0.9704 -0.1465
2 1 3 -0.05835544336597464 1.1847 0.0855 0.5005
3 1 1 0.12532604637708036 -0.0937 0.7368 -1.2143
4 1 5 -0.4729353665227723 2.6789 0.3235 0.0805
5 1 1 0.12196611213739897 0.9681 -0.9659 0.2949
6 1 1 0.1472492350573224 -2.8752 1.0735 -1.2775
7 1 5 -0.44941224627132903 -1.5328 0.8445 0.3823
8 1 1 0.14575705153105778 0.2109 2.0254 -0.0588
9 1 1 0.14919021070780686 1.1448 0.2136 1.5854
10 1 1 0.13849440289995937 5.5295 0.0493 -0.8807
11 1 3 -0.05086477159526506 -2.7821 1.5204 -0.2851
12 1 4 -0.5705671161584693 -5.5169 2.09 -0.324
13 1 2 0.2805412344359446 -6.5506 2.1466 0.0
14 1 3 -0.023703234288211916 -4.292 1.483 0.4059
15 1 1 0.14278934965168516 -2.5244 2.5721 -0.432
16 1 1 0.13973425811503282 -4.2102 1.9886 1.3726
17 1 1 0.14388509147524917 -4.5245 0.4356 0.6184
18 1 3 -0.054277493957507 3.881 -0.5941 0.495
19 1 1 0.13281305199564852 3.7004 -1.5639 0.0228
20 1 4 -0.570634358103877 6.6145 -1.17 0.5101
21 1 2 0.281256700201722 7.684 -1.0422 0.3738
22 1 3 -0.02451635155082981 5.4627 -0.1897 0.1834
23 1 1 0.1441444357137684 3.7984 -0.7455 1.5751
24 1 1 0.140448417904653 5.664 0.7385 0.7263
25 1 1 0.0965767996729754 2.3136 -1.05 -1.609

Bonds

1 2 1 2
2 1 1 3
3 4 2 4
4 1 2 5
5 1 6 11
6 4 1 7
7 1 1 8
8 1 2 9
9 1 14 17
10 4 7 11
11 4 12 14
12 3 12 13
13 2 11 14
14 1 11 15
15 1 14 16
16 4 4 18
17 1 18 19
18 4 20 22
19 3 20 21
20 2 18 22
21 1 18 23
22 1 22 24
23 1 10 22

Angles

1 1 1 2 4
2 1 2 1 7
3 1 7 11 14
4 1 4 18 22
5 1 1 2 5
6 1 1 2 9
7 1 2 1 3
8 1 2 1 8
9 1 11 14 17
10 1 11 14 16
11 1 6 11 14
12 1 14 11 15
13 1 18 22 24
14 1 10 22 18
15 1 19 18 22
16 1 22 18 23
17 1 3 1 7
18 1 4 2 5
19 1 6 11 7
20 1 7 1 8
21 1 4 2 9
22 1 7 11 15
23 1 4 18 19
24 1 4 18 23
25 1 3 1 8
26 1 5 2 9
27 1 6 11 15
28 1 10 22 24
29 1 16 14 17
30 1 19 18 23
31 1 10 22 20
32 1 12 14 16
33 1 12 14 17
34 1 20 22 24
35 1 11 14 12
36 1 18 22 20
37 2 1 7 11
38 2 2 4 18
39 2 13 12 14
40 2 21 20 22

Dihedrals

1 1 3 1 2 4
2 1 5 2 1 7
3 1 4 2 1 8
4 1 7 1 2 9
5 1 4 18 22 10
6 1 7 11 14 16
7 1 7 11 14 17
8 1 4 18 22 24
9 1 3 1 2 5
10 1 3 1 2 9
11 1 5 2 1 8
12 1 6 11 14 17
13 1 6 11 14 16
14 1 8 1 2 9
15 1 10 22 18 19
16 1 10 22 18 23
17 1 15 11 14 17
18 1 15 11 14 16
19 1 19 18 22 24
20 1 23 18 22 24
21 1 4 2 1 7
22 1 4 18 22 20
23 1 7 11 14 12
24 1 6 11 14 12
25 1 12 14 11 15
26 1 19 18 22 20
27 1 20 22 18 23
28 2 1 7 11 6
29 2 1 7 11 15
30 2 2 4 18 19
31 2 2 4 18 23
32 2 3 1 7 11
33 2 8 1 7 11
34 2 5 2 4 18
35 2 9 2 4 18
36 2 1 7 11 14
37 2 2 4 18 22
38 2 2 1 7 11
39 2 1 2 4 18
40 2 13 12 14 17
41 2 13 12 14 16
42 2 21 20 22 24
43 2 10 22 20 21
44 2 11 14 12 13
45 2 18 22 20 21
