LAMMPS Description

24 atoms
23 bonds
37 angles
44 dihedrals
6 impropers

6 atom types
8 bond types
3 angle types
4 dihedral types
1 improper types

0.0 25.0 xlo xhi
0.0 25.0 ylo yhi
0.0 25.0 zlo zhi

Masses

1 1.008  # H
2 1.008  # H_HB
3 12.011  # C_3
4 12.011  # C_R
5 15.999  # O_2_b1_ha
6 15.999  # O_2_b1_hd

Atoms

1 1 4 -0.131577816065071 -2.049 0.7985 -0.0037
2 1 4 -0.100020855333611 -2.0568 -0.5951 -0.001
3 1 4 -0.1056445929303 -0.854 -1.2999 0.0021
4 1 4 -0.168785094987836 0.366 0.7851 0.0009
5 1 1 0.15266507090014 -2.9887 1.3458 -0.0071
6 1 4 -0.0923358110907342 0.3569 -0.6098 0.0039
7 1 1 0.101777478011072 -3.0023 -1.1326 -0.0018
8 1 1 0.0999771094191085 -0.8609 -2.3873 0.0051
9 1 4 0.293857275269778 -0.8379 1.4898 -0.003
10 1 1 0.114785448488386 1.3142 1.3166 0.0023
11 1 1 0.0985134524084317 1.2953 -1.1589 0.007
12 1 2 0.300214349652041 0.0785 3.1845 -0.0054
13 1 6 -0.648463811809114 -0.837 2.8524 -0.005
14 1 3 -0.338042712195707 5.6772 3.8971 -0.131
15 1 3 -0.162172737998464 6.912 4.7846 0.1112
16 1 1 0.121335942665521 8.3788 3.5696 -0.9473
17 1 1 0.114480467777901 9.0673 4.5922 0.324
18 1 1 0.121966634115072 8.1733 3.1266 0.7583
19 1 1 0.110926360170202 4.7695 4.5047 -0.1311
20 1 1 0.118137414572362 5.7496 3.3868 -1.0943
21 1 1 0.116004996113406 5.5853 3.1444 0.6556
22 1 3 -0.332064551054369 8.2141 3.9642 0.0581
23 1 1 0.107493625725524 6.9494 5.5738 -0.6436
24 1 1 0.106972358176262 6.8245 5.2669 1.0876

Bonds

1 5 1 2
2 4 1 5
3 5 1 9
4 5 2 3
5 4 2 7
6 5 3 6
7 4 3 8
8 5 4 6
9 5 4 9
10 4 4 10
11 4 6 11
12 8 9 13
13 6 12 13
14 3 14 15
15 2 14 19
16 2 14 20
17 2 14 21
18 3 15 22
19 2 15 23
20 2 15 24
21 2 16 22
22 2 17 22
23 2 18 22

Angles

1 1 14 15 22
2 1 14 15 23
3 1 14 15 24
4 1 15 14 19
5 1 15 14 20
6 1 15 14 21
7 1 15 22 16
8 1 15 22 17
9 1 15 22 18
10 1 22 15 23
11 1 22 15 24
12 1 16 22 17
13 1 16 22 18
14 1 17 22 18
15 1 19 14 20
16 1 19 14 21
17 1 20 14 21
18 1 23 15 24
19 2 9 13 12
20 3 1 2 3
21 3 1 9 4
22 3 2 1 9
23 3 2 3 6
24 3 3 6 4
25 3 6 4 9
26 3 1 2 7
27 3 2 1 5
28 3 2 3 8
29 3 3 2 7
30 3 3 6 11
31 3 4 6 11
32 3 6 3 8
33 3 6 4 10
34 3 5 1 9
35 3 9 4 10
36 3 1 9 13
37 3 4 9 13

Dihedrals

1 1 14 15 22 16
2 1 14 15 22 17
3 1 14 15 22 18
4 1 19 14 15 22
5 1 20 14 15 22
6 1 21 14 15 22
7 1 16 22 15 23
8 1 16 22 15 24
9 1 17 22 15 23
10 1 17 22 15 24
11 1 18 22 15 23
12 1 18 22 15 24
13 1 19 14 15 23
14 1 19 14 15 24
15 1 20 14 15 23
16 1 20 14 15 24
17 1 21 14 15 23
18 1 21 14 15 24
19 3 1 2 3 6
20 3 1 9 4 6
21 3 2 1 9 4
22 3 2 3 6 4
23 3 3 2 1 9
24 3 3 6 4 9
25 3 1 2 3 8
26 3 1 9 4 10
27 3 2 3 6 11
28 3 3 2 1 5
29 3 3 6 4 10
30 3 4 6 3 8
31 3 4 9 1 5
32 3 6 3 2 7
33 3 7 2 1 9
34 3 9 4 6 11
35 3 2 1 9 13
36 3 6 4 9 13
37 3 5 1 2 7
38 3 7 2 3 8
39 3 8 3 6 11
40 3 10 4 6 11
41 3 5 1 9 13
42 3 10 4 9 13
43 4 1 9 13 12
44 4 4 9 13 12

Impropers

1 1 1 2 5 9
2 1 2 1 3 7
3 1 3 2 6 8
4 1 4 6 9 10
5 1 6 3 4 11
6 1 9 1 4 13
