LAMMPS Description

24 atoms
23 bonds
37 angles
47 dihedrals
6 impropers

6 atom types
8 bond types
3 angle types
4 dihedral types
1 improper types

0.0 25.0 xlo xhi
0.0 25.0 ylo yhi
0.0 25.0 zlo zhi

Masses

1 1.008  # H
2 1.008  # H_HB
3 12.011  # C_3
4 12.011  # C_R
5 15.999  # O_2_b1_ha
6 15.999  # O_2_b1_hd

Atoms

1 1 4 -0.150000913665795 -1.425 1.2892 0.0093
2 1 4 -0.0987392104548446 -1.8172 0.0601 0.538
3 1 4 -0.106718815774047 -0.947 -1.0282 0.4922
4 1 4 -0.1492602545952 0.7035 0.3368 -0.6245
5 1 1 0.127681308976076 -2.107 2.1357 0.0374
6 1 4 -0.099403261714571 0.3126 -0.8898 -0.0894
7 1 1 0.0959590766509538 -2.8035 -0.0501 0.9812
8 1 1 0.0949714275176672 -1.2536 -1.9874 0.9032
9 1 4 0.277743536303305 -0.1617 1.4297 -0.5634
10 1 1 0.12846091351979 1.6805 0.4394 -1.0888
11 1 1 0.095054530411991 0.989 -1.74 -0.1313
12 1 1 0.107257734625108 4.2822 4.0704 0.4987
13 1 5 -0.522292319460014 0.2056 2.6397 -1.1106
14 1 3 0.00343959458073527 0.9206 3.6243 -0.3271
15 1 1 0.111547560499986 3.1667 5.2711 -0.171
16 1 1 0.109076386725339 2.8698 4.583 1.4375
17 1 3 -0.189978721320177 2.4065 3.2297 -0.2066
18 1 1 0.115423781312847 0.8416 4.5835 -0.8458
19 1 1 0.100009473752045 0.4599 3.7131 0.6613
20 1 3 -0.348166206199218 3.2316 4.3615 0.4309
21 1 1 0.121784504827182 2.5043 2.328 0.4018
22 1 1 0.13530448688936 2.8065 3.0073 -1.1987
23 1 1 0.0345443029060094 -1.8381 5.0252 -0.2185
24 1 1 0.00630108368547296 -1.7203 5.7425 0.6071

Bonds

1 5 1 2
2 4 1 5
3 5 1 9
4 5 2 3
5 4 2 7
6 5 3 6
7 4 3 8
8 5 4 6
9 5 4 9
10 4 4 10
11 4 6 11
12 8 9 13
13 7 13 14
14 3 14 17
15 2 14 18
16 2 14 19
17 3 17 20
18 2 17 21
19 2 17 22
20 2 12 20
21 2 15 20
22 2 16 20
23 1 23 24

Angles

1 1 12 20 17
2 1 15 20 17
3 1 16 20 17
4 1 17 14 18
5 1 17 14 19
6 1 14 17 21
7 1 20 17 21
8 1 14 17 22
9 1 20 17 22
10 1 12 20 15
11 1 12 20 16
12 1 15 20 16
13 1 18 14 19
14 1 21 17 22
15 1 13 14 17
16 1 13 14 18
17 1 13 14 19
18 1 14 17 20
19 2 9 13 14
20 3 1 2 3
21 3 1 9 4
22 3 2 1 9
23 3 2 3 6
24 3 3 6 4
25 3 6 4 9
26 3 1 2 7
27 3 2 1 5
28 3 2 3 8
29 3 3 2 7
30 3 3 6 11
31 3 4 6 11
32 3 6 3 8
33 3 6 4 10
34 3 5 1 9
35 3 9 4 10
36 3 1 9 13
37 3 4 9 13

Dihedrals

1 1 12 20 17 14
2 1 14 17 20 15
3 1 14 17 20 16
4 1 18 14 17 20
5 1 19 14 17 20
6 1 12 20 17 21
7 1 12 20 17 22
8 1 15 20 17 21
9 1 15 20 17 22
10 1 16 20 17 21
11 1 16 20 17 22
12 1 18 14 17 21
13 1 18 14 17 22
14 1 19 14 17 21
15 1 19 14 17 22
16 1 13 14 17 20
17 1 13 14 17 21
18 1 13 14 17 22
19 2 9 13 14 17
20 2 9 13 14 18
21 2 9 13 14 19
22 3 1 2 3 6
23 3 1 9 4 6
24 3 2 1 9 4
25 3 2 3 6 4
26 3 3 2 1 9
27 3 3 6 4 9
28 3 1 2 3 8
29 3 1 9 4 10
30 3 2 3 6 11
31 3 3 2 1 5
32 3 3 6 4 10
33 3 4 6 3 8
34 3 4 9 1 5
35 3 6 3 2 7
36 3 7 2 1 9
37 3 9 4 6 11
38 3 2 1 9 13
39 3 6 4 9 13
40 3 5 1 2 7
41 3 7 2 3 8
42 3 8 3 6 11
43 3 10 4 6 11
44 3 5 1 9 13
45 3 10 4 9 13
46 4 1 9 13 14
47 4 4 9 13 14

Impropers

1 1 1 2 5 9
2 1 2 1 3 7
3 1 3 2 6 8
4 1 4 6 9 10
5 1 6 3 4 11
6 1 9 1 4 13
