LAMMPS Description

10 atoms
8 bonds
12 angles
0 dihedrals
0 impropers

2 atom types
3 bond types
1 angle types
1 dihedral types
0 improper types

0.0 25.0 xlo xhi
0.0 25.0 ylo yhi
0.0 25.0 zlo zhi

Masses

1 1.008 # H
2 12.011 # C_3

Atoms

1 1 2 -0.475967930514996 -3.673 0.6735 0.0165
2 1 1 0.120529525845038 -3.1949 0.5323 0.9882
3 1 1 0.120264241148591 -3.0917 1.3839 -0.5751
4 1 1 0.118243807618733 -3.7211 -0.283 -0.5077
5 1 1 0.117078156926731 -4.6836 1.0615 0.1608
6 1 2 -0.476007894217537 -0.0735 0.4127 -0.0102
7 1 1 0.120916764684646 -0.6704 0.1225 -0.8773
8 1 1 0.118616100338222 -0.198 1.4815 0.176
9 1 1 0.119239618144207 -0.4055 -0.1503 0.8647
10 1 1 0.117087610026365 0.9792 0.1969 -0.2043

Bonds

1 2 1 2
2 2 1 3
3 2 1 4
4 2 1 5
5 2 6 7
6 2 6 8
7 2 6 9
8 2 6 10

Angles

1 1 2 1 3
2 1 2 1 4
3 1 2 1 5
4 1 3 1 4
5 1 3 1 5
6 1 4 1 5
7 1 7 6 8
8 1 7 6 9
9 1 7 6 10
10 1 8 6 9
11 1 8 6 10
12 1 9 6 10
