LAMMPS Description

20 atoms
18 bonds
29 angles
30 dihedrals
1 impropers

6 atom types
7 bond types
3 angle types
4 dihedral types
1 improper types

0.0 25.0 xlo xhi
0.0 25.0 ylo yhi
0.0 25.0 zlo zhi

Masses

1 1.008  # H
2 1.008  # H_HB
3 12.011  # C_3
4 12.011  # C_2
5 15.999  # O_3_hd
6 15.999  # O_2_ha

Atoms

1 1 4 0.109312977052837 -1.8583 1.1336 -1.1379
2 1 6 -0.430235343132239 -1.4837 2.2156 -1.5481
3 1 1 0.113600199245278 -5.5531 2.6899 -0.2495
4 1 1 0.148005113941628 -4.0758 3.3051 0.4994
5 1 3 0.407916000454012 -2.5347 0.9177 0.2035
6 1 1 0.161428057530382 -4.0913 2.8762 -1.2222
7 1 1 0.186600609695682 2.1156 1.2637 0.0699
8 1 3 -0.232865291077973 -4.0658 1.1487 0.1231
9 1 5 -0.54180503053829 -1.9449 1.8128 1.1811
10 1 2 0.324617689920974 -1.9554 2.7666 0.8957
11 1 3 -0.319077409292005 -4.465 2.5967 -0.2351
12 1 1 0.112708591248855 -4.4958 0.4714 -0.6192
13 1 1 0.167801836115868 -4.5157 0.8923 1.0857
14 1 2 0.278002257599145 -2.7252 -1.1307 -0.0001
15 1 5 -0.584829173096081 -2.3038 -0.4588 0.6003
16 1 3 -0.462798921475627 3.0702 0.7433 -0.0256
17 1 1 0.144685303268045 3.492 0.5703 0.9667
18 1 1 0.138908502280045 3.7605 1.3523 -0.6131
19 1 1 0.149040875117222 2.9135 -0.215 -0.5265
20 1 1 0.128983155142241 -1.6807 0.2708 -1.7959

Bonds

1 7 1 2
2 3 1 5
3 1 1 20
4 4 5 8
5 6 5 9
6 6 5 15
7 4 8 11
8 2 8 12
9 2 8 13
10 5 9 10
11 2 3 11
12 2 4 11
13 2 6 11
14 5 14 15
15 2 7 16
16 2 16 17
17 2 16 18
18 2 16 19

Angles

1 1 1 5 8
2 1 1 5 9
3 1 1 5 15
4 1 3 11 8
5 1 4 11 8
6 1 6 11 8
7 1 5 8 12
8 1 11 8 12
9 1 5 8 13
10 1 11 8 13
11 1 3 11 4
12 1 3 11 6
13 1 4 11 6
14 1 7 16 17
15 1 7 16 18
16 1 7 16 19
17 1 12 8 13
18 1 17 16 18
19 1 17 16 19
20 1 18 16 19
21 1 5 8 11
22 1 8 5 9
23 1 8 5 15
24 1 9 5 15
25 2 5 9 10
26 2 5 15 14
27 3 2 1 5
28 3 2 1 20
29 3 5 1 20

Dihedrals

1 1 1 5 8 11
2 1 1 5 8 12
3 1 1 5 8 13
4 1 3 11 8 5
5 1 4 11 8 5
6 1 5 8 11 6
7 1 3 11 8 12
8 1 3 11 8 13
9 1 4 11 8 12
10 1 4 11 8 13
11 1 6 11 8 12
12 1 6 11 8 13
13 1 9 5 8 11
14 1 11 8 5 15
15 1 9 5 8 12
16 1 9 5 8 13
17 1 12 8 5 15
18 1 13 8 5 15
19 2 1 5 9 10
20 2 1 5 15 14
21 2 8 5 9 10
22 2 8 5 15 14
23 2 10 9 5 15
24 2 9 5 15 14
25 3 2 1 5 8
26 3 2 1 5 9
27 3 2 1 5 15
28 4 8 5 1 20
29 4 9 5 1 20
30 4 15 5 1 20

Impropers

1 1 1 2 5 20
