LAMMPS Description

20 atoms
19 bonds
33 angles
45 dihedrals
0 impropers

6 atom types
7 bond types
3 angle types
4 dihedral types
1 improper types

0.0 25.0 xlo xhi
0.0 25.0 ylo yhi
0.0 25.0 zlo zhi

Masses

1 1.008  # H
2 1.008  # H_HB
3 12.011  # C_3
4 12.011  # C_2
5 15.999  # O_3_hd
6 15.999  # O_2_ha

Atoms

1 1 3 0.0923004678964221 -1.0472 1.5113 -0.7421
2 1 1 0.150408596255212 0.3202 -0.1496 -0.357
3 1 1 0.110304749771436 -5.0486 2.571 -1.532
4 1 1 0.16189606879196 -4.1928 3.1602 -0.107
5 1 3 0.407502076745493 -2.2954 0.9987 0.0598
6 1 1 0.161965504128584 -3.3716 3.094 -1.6804
7 1 1 0.143354441471308 1.1281 1.3701 -0.7431
8 1 3 -0.228076648261571 -3.6286 1.1354 -0.7304
9 1 5 -0.569867585099896 -2.3197 1.88 1.2026
10 1 2 0.307759998841656 -1.9554 2.7666 0.8957
11 1 3 -0.309463694553676 -4.0803 2.5828 -1.0271
12 1 1 0.10521620930565 -3.5417 0.5947 -1.676
13 1 1 0.157425673411701 -4.4236 0.6455 -0.1621
14 1 2 0.281227244279754 -2.7252 -1.1307 -0.0001
15 1 5 -0.602419296457474 -2.1807 -0.4155 0.4783
16 1 3 -0.319865673038356 0.282 0.9318 -0.2095
17 1 1 0.180486906338531 0.4012 1.1411 0.856
18 1 5 -0.638895324147643 -0.9373 2.967 -0.7031
19 1 2 0.291481571180756 -0.7968 3.3389 0.2073
20 1 1 0.117258713140154 -1.153 1.2043 -1.7861

Bonds

1 4 1 5
2 4 1 16
3 6 1 18
4 2 1 20
5 4 5 8
6 6 5 9
7 6 5 15
8 4 8 11
9 2 8 12
10 2 8 13
11 5 9 10
12 2 3 11
13 2 4 11
14 2 6 11
15 5 14 15
16 2 2 16
17 2 7 16
18 2 16 17
19 5 18 19

Angles

1 1 1 5 8
2 1 5 1 16
3 1 5 8 11
4 1 1 5 9
5 1 1 5 15
6 1 5 1 18
7 1 8 5 9
8 1 8 5 15
9 1 16 1 18
10 1 1 16 2
11 1 1 16 7
12 1 1 16 17
13 1 5 1 20
14 1 5 8 12
15 1 5 8 13
16 1 3 11 8
17 1 4 11 8
18 1 6 11 8
19 1 11 8 12
20 1 11 8 13
21 1 16 1 20
22 1 2 16 7
23 1 2 16 17
24 1 3 11 4
25 1 3 11 6
26 1 4 11 6
27 1 7 16 17
28 1 12 8 13
29 1 9 5 15
30 1 18 1 20
31 2 1 18 19
32 2 5 9 10
33 2 5 15 14

Dihedrals

1 1 1 5 8 11
2 1 8 5 1 16
3 1 1 5 8 12
4 1 1 5 8 13
5 1 2 16 1 5
6 1 5 1 16 7
7 1 5 1 16 17
8 1 3 11 8 5
9 1 4 11 8 5
10 1 5 8 11 6
11 1 8 5 1 20
12 1 2 16 1 18
13 1 7 16 1 18
14 1 9 5 8 12
15 1 12 8 5 15
16 1 9 5 8 13
17 1 13 8 5 15
18 1 17 16 1 18
19 1 9 5 1 20
20 1 15 5 1 20
21 1 2 16 1 20
22 1 3 11 8 12
23 1 3 11 8 13
24 1 4 11 8 12
25 1 4 11 8 13
26 1 6 11 8 12
27 1 6 11 8 13
28 1 7 16 1 20
29 1 17 16 1 20
30 1 8 5 1 18
31 1 9 5 8 11
32 1 11 8 5 15
33 1 9 5 1 16
34 1 15 5 1 16
35 1 9 5 1 18
36 1 15 5 1 18
37 2 1 5 9 10
38 2 8 5 9 10
39 2 1 5 15 14
40 2 8 5 15 14
41 2 5 1 18 19
42 2 16 1 18 19
43 2 10 9 5 15
44 2 9 5 15 14
45 2 19 18 1 20
