LAMMPS Description

39 atoms
40 bonds
64 angles
88 dihedrals
14 impropers

12 atom types
15 bond types
4 angle types
9 dihedral types
2 improper types

0.0 25.0 xlo xhi
0.0 25.0 ylo yhi
0.0 25.0 zlo zhi

Masses

1 1.008  # H
2 1.008  # H_HB
3 12.011  # C_3
4 12.011  # C_R
5 12.011  # C_2
6 12.011  # C_2_b1
7 14.007  # N_2_d1_ha
8 14.007  # N_2_b1_d2_hd
9 15.999  # O_3_hd
10 15.999  # O_3_ha
11 15.999  # O_2
12 15.999  # O_2_ha

Atoms

1 1 6 0.799321611804618 0.132 0.4268 0.1256
2 1 11 -0.52548196166155 0.1871 0.7739 -1.0388
3 1 8 -0.692813118785196 1.2129 0.253 0.912
4 1 4 -0.14660973212193 3.3761 -0.6794 0.2546
5 1 4 0.282794137260247 2.5692 0.4315 0.4992
6 1 1 0.163629991587213 2.4537 2.5851 0.4718
7 1 4 -0.111317168332192 4.6672 -0.5106 -0.2457
8 1 4 -0.131580823341512 3.0767 1.7132 0.2851
9 1 4 0.0460287985933023 5.1656 0.7696 -0.5002
10 1 1 0.121046092473593 4.7389 2.884 -0.4082
11 1 4 -0.112774837989887 4.3701 1.8807 -0.2089
12 1 1 0.149668682724581 2.9858 -1.6823 0.4125
13 1 3 -0.259428448198706 6.495 0.9472 -1.2231
14 1 4 -0.118785000840591 8.4147 -0.2049 -0.0381
15 1 4 0.288052317146251 10.1771 1.0574 1.0328
16 1 5 0.589985658754919 12.5356 1.2606 1.5742
17 1 4 0.0391334991513899 7.7347 0.9779 -0.3393
18 1 1 0.133096341361516 6.6052 0.1429 -1.9545
19 1 1 0.131367619349541 6.4578 1.8675 -1.8113
20 1 4 -0.118864953621011 8.2732 2.1989 0.0746
21 1 1 0.117140226917109 7.7629 3.1292 -0.1631
22 1 1 0.157833499407623 9.9099 3.1993 1.0504
23 1 4 -0.144852460074005 9.4891 2.2399 0.7569
24 1 4 -0.145196958640289 9.6305 -0.1666 0.645
25 1 1 0.116583708019401 8.015 -1.1622 -0.3642
26 1 1 0.155370894772463 10.1617 -1.0936 0.8514
27 1 1 0.118384293496847 5.2685 -1.3861 -0.478
28 1 7 -0.517378075266916 11.3365 1.0974 1.6335
29 1 11 -0.486436023189326 13.6581 1.5069 1.3803
30 1 3 0.0343740890696222 -2.2543 0.1853 0.1019
31 1 3 -0.0063185021792677 -3.3882 -0.119 1.0935
32 1 1 0.181187055229517 -2.3868 1.1852 -0.3219
33 1 9 -0.606606962309792 -4.6379 -0.1113 0.4024
34 1 2 0.306728462298168 -5.3454 -0.3042 1.0446
35 1 1 0.143269538098593 -3.4005 0.6402 1.8802
36 1 10 -0.610281268953632 -0.9912 0.1248 0.8096
37 1 1 0.182223045785554 -2.2497 -0.5547 -0.7041
38 1 1 0.145160018261304 -3.2273 -1.1004 1.5477
39 1 2 0.332346713942433 1.0677 -0.094 1.847

Bonds

1 15 1 2
2 9 1 3
3 12 1 36
4 10 3 5
5 8 3 39
6 5 4 5
7 5 4 7
8 3 4 12
9 5 5 8
10 5 7 9
11 3 7 27
12 3 6 8
13 5 8 11
14 5 9 11
15 4 9 13
16 3 10 11
17 4 13 17
18 1 13 18
19 1 13 19
20 5 14 17
21 5 14 24
22 3 14 25
23 5 15 23
24 5 15 24
25 7 15 28
26 6 16 28
27 14 16 29
28 5 17 20
29 3 20 21
30 5 20 23
31 3 22 23
32 3 24 26
33 2 30 31
34 1 30 32
35 13 30 36
36 1 30 37
37 13 31 33
38 1 31 35
39 1 31 38
40 11 33 34

Angles

1 1 9 13 17
2 1 9 13 18
3 1 9 13 19
4 1 17 13 18
5 1 17 13 19
6 1 18 13 19
7 1 32 30 37
8 1 35 31 38
9 1 30 31 33
10 1 30 31 35
11 1 30 31 38
12 1 31 30 32
13 1 31 30 37
14 1 31 30 36
15 1 32 30 36
16 1 36 30 37
17 1 33 31 35
18 1 33 31 38
19 2 1 36 30
20 2 31 33 34
21 3 1 3 5
22 3 1 3 39
23 3 2 1 3
24 3 2 1 36
25 3 3 1 36
26 3 5 3 39
27 3 15 28 16
28 3 28 16 29
29 4 3 5 4
30 4 3 5 8
31 4 4 5 8
32 4 4 7 9
33 4 5 4 7
34 4 5 8 11
35 4 7 9 11
36 4 8 11 9
37 4 14 17 20
38 4 14 24 15
39 4 15 23 20
40 4 17 14 24
41 4 17 20 23
42 4 23 15 24
43 4 4 7 27
44 4 5 4 12
45 4 5 8 6
46 4 7 4 12
47 4 8 11 10
48 4 9 7 27
49 4 9 11 10
50 4 6 8 11
51 4 14 24 26
52 4 15 23 22
53 4 15 24 26
54 4 17 14 25
55 4 17 20 21
56 4 20 23 22
57 4 21 20 23
58 4 24 14 25
59 4 7 9 13
60 4 11 9 13
61 4 13 17 14
62 4 13 17 20
63 4 23 15 28
64 4 24 15 28

Dihedrals

1 1 32 30 31 33
2 1 33 31 30 37
3 1 32 30 31 35
4 1 32 30 31 38
5 1 35 31 30 37
6 1 37 30 31 38
7 1 33 31 30 36
8 1 35 31 30 36
9 1 36 30 31 38
10 2 1 36 30 31
11 2 1 36 30 32
12 2 1 36 30 37
13 2 30 31 33 34
14 2 34 33 31 35
15 2 34 33 31 38
16 3 7 9 13 17
17 3 11 9 13 17
18 3 9 13 17 14
19 3 9 13 17 20
20 3 7 9 13 18
21 3 7 9 13 19
22 3 11 9 13 18
23 3 11 9 13 19
24 3 14 17 13 18
25 3 14 17 13 19
26 3 18 13 17 20
27 3 19 13 17 20
28 4 15 28 16 29
29 5 3 5 4 7
30 5 3 5 8 11
31 5 3 5 4 12
32 5 3 5 8 6
33 5 4 5 8 6
34 5 5 4 7 27
35 5 5 8 11 10
36 5 7 9 11 10
37 5 8 5 4 12
38 5 9 7 4 12
39 5 6 8 11 9
40 5 11 9 7 27
41 5 14 17 20 21
42 5 15 23 20 21
43 5 15 24 14 25
44 5 17 14 24 26
45 5 17 20 23 22
46 5 20 17 14 25
47 5 23 15 24 26
48 5 22 23 15 24
49 5 4 5 8 11
50 5 4 7 9 11
51 5 5 4 7 9
52 5 5 8 11 9
53 5 7 4 5 8
54 5 7 9 11 8
55 5 14 17 20 23
56 5 14 24 15 23
57 5 15 23 20 17
58 5 15 24 14 17
59 5 20 17 14 24
60 5 20 23 15 24
61 5 4 7 9 13
62 5 8 11 9 13
63 5 13 17 20 23
64 5 13 17 14 24
65 5 6 8 11 10
66 5 12 4 7 27
67 5 21 20 23 22
68 5 25 14 24 26
69 5 10 11 9 13
70 5 13 17 20 21
71 5 13 17 14 25
72 5 13 9 7 27
73 5 14 24 15 28
74 5 20 23 15 28
75 5 22 23 15 28
76 5 26 24 15 28
77 6 2 1 3 5
78 6 5 3 1 36
79 6 2 1 3 39
80 6 36 1 3 39
81 7 16 28 15 23
82 7 16 28 15 24
83 8 1 3 5 4
84 8 1 3 5 8
85 8 4 5 3 39
86 8 8 5 3 39
87 9 2 1 36 30
88 9 3 1 36 30

Impropers

1 1 1 2 3 36
2 1 3 1 5 39
3 2 4 5 7 12
4 2 7 4 9 27
5 2 8 5 6 11
6 2 11 8 9 10
7 2 14 17 24 25
8 2 20 17 21 23
9 2 23 15 20 22
10 2 24 14 15 26
11 2 5 3 4 8
12 2 9 7 11 13
13 2 17 13 14 20
14 2 15 23 24 28
