LAMMPS Description

39 atoms
39 bonds
60 angles
81 dihedrals
12 impropers

12 atom types
15 bond types
4 angle types
9 dihedral types
2 improper types

0.0 25.0 xlo xhi
0.0 25.0 ylo yhi
0.0 25.0 zlo zhi

Masses

1 1.008  # H
2 1.008  # H_HB
3 12.011  # C_3
4 12.011  # C_R
5 12.011  # C_2
6 12.011  # C_2_b1
7 14.007  # N_2_d1_ha
8 14.007  # N_2_b1_d2_hd
9 15.999  # O_3_hd
10 15.999  # O_3_ha
11 15.999  # O_2
12 15.999  # O_2_ha

Atoms

1 1 5 0.591021032261622 1.3316 0.733 0.842
2 1 12 -0.496972351566586 0.2313 0.6909 0.4598
3 1 7 -0.512640240894924 2.5208 0.7698 1.0705
4 1 4 -0.142351072090243 4.3471 -0.3482 0.1267
5 1 4 0.283862237446563 3.6859 0.8267 0.4851
6 1 1 0.159158411942644 3.7623 2.9838 0.4889
7 1 4 -0.115460812631479 5.5808 -0.2847 -0.5196
8 1 4 -0.141792966823686 4.2697 2.0632 0.209
9 1 4 0.0440644400391835 6.162 0.9512 -0.812
10 1 1 0.119818693905675 5.946 3.0933 -0.6551
11 1 4 -0.116286766329233 5.5037 2.1242 -0.4364
12 1 1 0.158306402870004 3.9005 -1.3167 0.3415
13 1 3 -0.259771292987799 7.4817 1.0199 -1.5642
14 1 4 -0.116672471263445 9.3095 -0.1653 -0.2755
15 1 4 0.290891544880218 10.9645 1.0598 0.9878
16 1 5 0.59407388901804 13.2296 1.1746 1.9029
17 1 4 0.0439412143969447 8.6898 1.0321 -0.6406
18 1 1 0.132428413200261 7.5547 0.1714 -2.2496
19 1 1 0.132538322524124 7.4954 1.9144 -2.1922
20 1 4 -0.116380933068432 9.2092 2.2426 -0.1759
21 1 1 0.120130418650084 8.7371 3.1822 -0.4532
22 1 1 0.159545973373767 10.7436 3.2072 0.984
23 1 4 -0.144707530590979 10.3428 2.2577 0.6352
24 1 4 -0.144791241636141 10.4437 -0.1526 0.5354
25 1 1 0.120250542649587 8.9161 -1.1146 -0.6312
26 1 1 0.158193788631625 10.9233 -1.0912 0.8053
27 1 1 0.120411517117727 6.0835 -1.2057 -0.8039
28 1 7 -0.518446366725216 12.0338 1.0733 1.7346
29 1 12 -0.480618007751386 14.3823 1.3351 1.9102
30 1 3 -0.0192190959903962 -5.7397 -0.5101 0.3621
31 1 3 -0.0195851178011365 -7.1677 -0.5162 1.1541
32 1 1 0.15156241858663 -5.6074 0.4923 -0.0563
33 1 9 -0.570155604060711 -8.4543 -0.5006 0.3492
34 1 2 0.299040051728297 -9.43 -0.4805 0.7607
35 1 2 0.326287750211958 -3.4972 -0.8507 0.7202
36 1 9 -0.55834258719365 -4.4749 -0.8508 1.1281
37 1 1 0.162737863039634 -5.8205 -1.1995 -0.4815
38 1 1 0.160974555482877 -7.1864 -1.3931 1.8054
39 1 1 0.144954977447979 -7.1788 0.3642 1.8037

Bonds

1 14 1 2
2 6 1 3
3 7 3 5
4 5 4 5
5 5 4 7
6 3 4 12
7 5 5 8
8 5 7 9
9 3 7 27
10 3 6 8
11 5 8 11
12 5 9 11
13 4 9 13
14 3 10 11
15 4 13 17
16 1 13 18
17 1 13 19
18 5 14 17
19 5 14 24
20 3 14 25
21 5 15 23
22 5 15 24
23 7 15 28
24 6 16 28
25 14 16 29
26 5 17 20
27 3 20 21
28 5 20 23
29 3 22 23
30 3 24 26
31 1 30 32
32 13 30 36
33 1 30 37
34 2 30 31
35 13 31 33
36 1 31 38
37 1 31 39
38 11 33 34
39 11 35 36

Angles

1 1 9 13 17
2 1 9 13 18
3 1 9 13 19
4 1 17 13 18
5 1 17 13 19
6 1 18 13 19
7 1 32 30 37
8 1 38 31 39
9 1 30 31 33
10 1 31 30 36
11 1 30 31 38
12 1 30 31 39
13 1 31 30 32
14 1 31 30 37
15 1 32 30 36
16 1 36 30 37
17 1 33 31 38
18 1 33 31 39
19 2 30 36 35
20 2 31 33 34
21 3 1 3 5
22 3 15 28 16
23 3 2 1 3
24 3 28 16 29
25 4 3 5 4
26 4 3 5 8
27 4 23 15 28
28 4 24 15 28
29 4 4 5 8
30 4 4 7 9
31 4 5 4 7
32 4 5 8 11
33 4 7 9 11
34 4 8 11 9
35 4 14 17 20
36 4 14 24 15
37 4 15 23 20
38 4 17 14 24
39 4 17 20 23
40 4 23 15 24
41 4 4 7 27
42 4 5 4 12
43 4 5 8 6
44 4 7 4 12
45 4 8 11 10
46 4 9 7 27
47 4 9 11 10
48 4 6 8 11
49 4 14 24 26
50 4 15 23 22
51 4 15 24 26
52 4 17 14 25
53 4 17 20 21
54 4 20 23 22
55 4 21 20 23
56 4 24 14 25
57 4 7 9 13
58 4 11 9 13
59 4 13 17 14
60 4 13 17 20

Dihedrals

1 1 32 30 31 33
2 1 33 31 30 37
3 1 36 30 31 38
4 1 36 30 31 39
5 1 32 30 31 38
6 1 32 30 31 39
7 1 37 30 31 38
8 1 37 30 31 39
9 1 33 31 30 36
10 2 30 31 33 34
11 2 31 30 36 35
12 2 34 33 31 38
13 2 34 33 31 39
14 2 32 30 36 35
15 2 35 36 30 37
16 3 7 9 13 17
17 3 11 9 13 17
18 3 9 13 17 14
19 3 9 13 17 20
20 3 7 9 13 18
21 3 7 9 13 19
22 3 11 9 13 18
23 3 11 9 13 19
24 3 14 17 13 18
25 3 14 17 13 19
26 3 18 13 17 20
27 3 19 13 17 20
28 4 2 1 3 5
29 4 15 28 16 29
30 5 3 5 4 7
31 5 3 5 8 11
32 5 20 23 15 28
33 5 14 24 15 28
34 5 3 5 4 12
35 5 3 5 8 6
36 5 22 23 15 28
37 5 26 24 15 28
38 5 4 5 8 6
39 5 5 4 7 27
40 5 5 8 11 10
41 5 7 9 11 10
42 5 8 5 4 12
43 5 9 7 4 12
44 5 6 8 11 9
45 5 11 9 7 27
46 5 14 17 20 21
47 5 15 23 20 21
48 5 15 24 14 25
49 5 17 14 24 26
50 5 17 20 23 22
51 5 20 17 14 25
52 5 23 15 24 26
53 5 22 23 15 24
54 5 4 5 8 11
55 5 4 7 9 11
56 5 5 4 7 9
57 5 5 8 11 9
58 5 7 4 5 8
59 5 7 9 11 8
60 5 14 17 20 23
61 5 14 24 15 23
62 5 15 23 20 17
63 5 15 24 14 17
64 5 20 17 14 24
65 5 20 23 15 24
66 5 4 7 9 13
67 5 8 11 9 13
68 5 13 17 20 23
69 5 13 17 14 24
70 5 6 8 11 10
71 5 12 4 7 27
72 5 21 20 23 22
73 5 25 14 24 26
74 5 10 11 9 13
75 5 13 17 20 21
76 5 13 17 14 25
77 5 13 9 7 27
78 7 1 3 5 4
79 7 1 3 5 8
80 7 16 28 15 23
81 7 16 28 15 24

Impropers

1 2 4 5 7 12
2 2 7 4 9 27
3 2 8 5 6 11
4 2 11 8 9 10
5 2 14 17 24 25
6 2 20 17 21 23
7 2 23 15 20 22
8 2 24 14 15 26
9 2 5 3 4 8
10 2 15 23 24 28
11 2 9 7 11 13
12 2 17 13 14 20
