LAMMPS Description

38 atoms
37 bonds
69 angles
99 dihedrals
0 impropers

6 atom types
7 bond types
3 angle types
4 dihedral types
1 improper types

0.0 25.0 xlo xhi
0.0 25.0 ylo yhi
0.0 25.0 zlo zhi

Masses

1 1.008  # H
2 1.008  # H_HB
3 12.011  # C_3
4 12.011  # C_2
5 15.999  # O_3_hd
6 15.999  # O_2_ha

Atoms

1 1 3 0.131405760424542 -2.0121 1.2151 -1.5579
2 1 1 0.108603213435273 -2.2619 3.0367 -2.6969
3 1 1 0.108146262398186 -6.6579 0.6126 0.7424
4 1 1 0.105147634658825 -5.5417 0.3445 2.1351
5 1 3 0.048641531257754 -1.874 0.5613 -0.1166
6 1 1 0.130543194198319 -5.6271 1.9669 1.3361
7 1 1 0.133781593081951 -1.3199 3.2673 -1.1823
8 1 3 -0.198742671798638 -3.1711 0.791 0.7606
9 1 1 0.102259523612045 -0.7477 0.8861 1.7796
10 1 5 -0.64561605320566 1.4304 2.3284 0.9186
11 1 3 -0.238531996716412 -0.725 1.2598 0.7305
12 1 2 0.282984701240673 1.352 2.2052 1.9009
13 1 1 0.123849916309379 -2.6645 -1.4941 -2.0816
14 1 3 -0.177067180808512 -1.5289 -0.964 -0.273
15 1 1 0.0991433046986014 -1.9757 -2.8722 -1.1764
16 1 1 0.106129949137945 -3.4065 -2.0969 -0.5344
17 1 3 -0.327023206103318 -2.4689 -1.8832 -1.062
18 1 1 0.0941244821187913 -1.3584 -1.4173 0.7279
19 1 1 0.153864114654032 -0.5963 -1.0248 -0.8534
20 1 3 0.173705576984501 0.7716 1.2537 0.2901
21 1 1 0.155533355754642 -1.0104 2.3298 0.8006
22 1 1 0.11232089796754 1.5188 -0.2124 1.732
23 1 1 0.108902599543356 1.1988 -0.9424 0.1344
24 1 3 -0.355459693297907 1.5506 -0.0315 0.6368
25 1 1 0.144728605067908 2.6124 0.0969 0.3392
26 1 1 0.182785561672761 0.8438 1.4512 -0.7948
27 1 3 -0.162326629875572 -4.5647 0.4476 0.1871
28 1 1 0.0969622986093785 -3.0486 0.2514 1.7258
29 1 1 0.160387546970617 -3.2206 1.8692 1.0202
30 1 3 -0.332405173301242 -5.6628 0.8702 1.1633
31 1 1 0.149586838021435 -4.7435 0.9804 -0.7675
32 1 1 0.100205751033839 -4.6956 -0.6262 0.0217
33 1 3 0.00330857218899586 -2.1981 2.7494 -1.6231
34 1 5 -0.663568559533582 -3.3766 3.1567 -0.9897
35 1 2 0.277086802350694 -3.4144 4.1439 -1.0832
36 1 5 -0.674207016740106 -0.8855 0.8928 -2.336
37 1 2 0.274031321522554 -1.1852 0.8106 -3.2795
38 1 1 0.10677727246641 -2.906 0.7596 -2.04

Bonds

1 4 1 5
2 4 1 33
3 6 1 36
4 2 1 38
5 4 5 8
6 4 5 11
7 4 5 14
8 4 8 27
9 2 8 28
10 2 8 29
11 5 10 12
12 6 10 20
13 2 9 11
14 4 11 20
15 2 11 21
16 4 14 17
17 2 14 18
18 2 14 19
19 2 13 17
20 2 15 17
21 2 16 17
22 4 20 24
23 2 20 26
24 2 22 24
25 2 23 24
26 2 24 25
27 4 27 30
28 2 27 31
29 2 27 32
30 2 3 30
31 2 4 30
32 2 6 30
33 2 2 33
34 2 7 33
35 6 33 34
36 5 34 35
37 5 36 37

Angles

1 1 1 5 8
2 1 1 5 11
3 1 1 5 14
4 1 5 1 33
5 1 5 8 27
6 1 5 11 20
7 1 5 14 17
8 1 8 5 11
9 1 8 5 14
10 1 8 27 30
11 1 11 5 14
12 1 11 20 24
13 1 1 33 2
14 1 1 33 7
15 1 5 1 38
16 1 5 8 28
17 1 5 8 29
18 1 5 11 9
19 1 5 11 21
20 1 5 14 18
21 1 5 14 19
22 1 8 27 31
23 1 8 27 32
24 1 11 20 26
25 1 13 17 14
26 1 14 17 15
27 1 14 17 16
28 1 17 14 18
29 1 17 14 19
30 1 9 11 20
31 1 20 11 21
32 1 20 24 22
33 1 20 24 23
34 1 20 24 25
35 1 24 20 26
36 1 27 8 28
37 1 27 8 29
38 1 3 30 27
39 1 4 30 27
40 1 6 30 27
41 1 30 27 31
42 1 30 27 32
43 1 33 1 38
44 1 1 33 34
45 1 5 1 36
46 1 10 20 11
47 1 10 20 24
48 1 33 1 36
49 1 2 33 7
50 1 3 30 4
51 1 3 30 6
52 1 4 30 6
53 1 9 11 21
54 1 13 17 15
55 1 13 17 16
56 1 15 17 16
57 1 18 14 19
58 1 22 24 23
59 1 22 24 25
60 1 23 24 25
61 1 28 8 29
62 1 31 27 32
63 1 2 33 34
64 1 7 33 34
65 1 10 20 26
66 1 36 1 38
67 2 1 36 37
68 2 12 10 20
69 2 33 34 35

Dihedrals

1 1 1 5 8 27
2 1 1 5 11 20
3 1 1 5 14 17
4 1 5 8 27 30
5 1 5 11 20 24
6 1 8 5 1 33
7 1 8 5 11 20
8 1 8 5 14 17
9 1 11 5 1 33
10 1 11 5 8 27
11 1 11 5 14 17
12 1 14 5 1 33
13 1 14 5 8 27
14 1 14 5 11 20
15 1 1 5 8 28
16 1 1 5 8 29
17 1 1 5 11 9
18 1 1 5 11 21
19 1 1 5 14 18
20 1 1 5 14 19
21 1 2 33 1 5
22 1 5 1 33 7
23 1 5 8 27 31
24 1 5 8 27 32
25 1 5 11 20 26
26 1 5 14 17 13
27 1 5 14 17 15
28 1 5 14 17 16
29 1 8 5 1 38
30 1 8 5 11 9
31 1 8 5 11 21
32 1 8 5 14 18
33 1 8 5 14 19
34 1 3 30 27 8
35 1 4 30 27 8
36 1 6 30 27 8
37 1 11 5 1 38
38 1 11 5 8 28
39 1 11 5 8 29
40 1 11 5 14 18
41 1 11 5 14 19
42 1 11 20 24 22
43 1 11 20 24 23
44 1 11 20 24 25
45 1 14 5 1 38
46 1 14 5 8 28
47 1 14 5 8 29
48 1 9 11 5 14
49 1 14 5 11 21
50 1 9 11 20 24
51 1 21 11 20 24
52 1 28 8 27 30
53 1 29 8 27 30
54 1 2 33 1 36
55 1 7 33 1 36
56 1 9 11 20 10
57 1 10 20 11 21
58 1 10 20 24 22
59 1 10 20 24 23
60 1 10 20 24 25
61 1 34 33 1 38
62 1 2 33 1 38
63 1 3 30 27 31
64 1 3 30 27 32
65 1 4 30 27 31
66 1 4 30 27 32
67 1 6 30 27 31
68 1 6 30 27 32
69 1 7 33 1 38
70 1 9 11 20 26
71 1 13 17 14 18
72 1 13 17 14 19
73 1 15 17 14 18
74 1 15 17 14 19
75 1 16 17 14 18
76 1 16 17 14 19
77 1 21 11 20 26
78 1 22 24 20 26
79 1 23 24 20 26
80 1 25 24 20 26
81 1 28 8 27 31
82 1 28 8 27 32
83 1 29 8 27 31
84 1 29 8 27 32
85 1 5 1 33 34
86 1 5 11 20 10
87 1 8 5 1 36
88 1 11 5 1 36
89 1 14 5 1 36
90 1 34 33 1 36
91 2 11 20 10 12
92 2 12 10 20 24
93 2 1 33 34 35
94 2 5 1 36 37
95 2 33 1 36 37
96 2 12 10 20 26
97 2 2 33 34 35
98 2 7 33 34 35
99 2 37 36 1 38
