LAMMPS Description

38 atoms
36 bonds
65 angles
84 dihedrals
1 impropers

6 atom types
7 bond types
3 angle types
4 dihedral types
1 improper types

0.0 25.0 xlo xhi
0.0 25.0 ylo yhi
0.0 25.0 zlo zhi

Masses

1 1.008  # H
2 1.008  # H_HB
3 12.011  # C_3
4 12.011  # C_2
5 15.999  # O_3_hd
6 15.999  # O_2_ha

Atoms

1 1 4 0.137104068122569 -1.7493 0.5887 -1.7947
2 1 6 -0.458640017354414 -2.5739 0.1657 -2.575
3 1 1 0.115492671686575 -6.4262 -0.3788 0.7547
4 1 1 0.113776835065848 -5.5393 0.9203 1.6411
5 1 3 0.0189284697248331 -1.7587 0.1633 -0.3409
6 1 1 0.130282169761986 -5.9186 1.1096 -0.1227
7 1 1 0.124074248335472 -1.0268 1.3192 -2.1437
8 1 3 -0.193402352754448 -3.118 0.6646 0.3081
9 1 1 0.109631573508975 -0.6419 0.8138 1.5008
10 1 5 -0.636846487890685 1.5836 1.9177 -0.0814
11 1 3 -0.271073967090974 -0.616 0.9706 0.3916
12 1 2 0.291283413198749 1.64 2.2358 0.8543
13 1 1 0.181632213086647 -2.6316 -2.1614 -1.9047
14 1 3 -0.173514068761945 -1.4388 -1.3749 -0.214
15 1 1 0.104982940377885 -1.8674 -3.3978 -0.862
16 1 1 0.11400485904842 -3.2984 -2.5743 -0.2754
17 1 3 -0.314508942815128 -2.3746 -2.4104 -0.8547
18 1 1 0.1005377473412 -1.288 -1.6564 0.8506
19 1 1 0.117707077590298 -0.4802 -1.5251 -0.756
20 1 3 0.162418410895709 0.8551 0.7172 -0.0909
21 1 1 0.138563269020381 -0.8398 2.049 0.2412
22 1 1 0.125226620499038 1.7228 0.0226 1.7968
23 1 1 0.104202063792534 1.1138 -1.3176 0.7749
24 1 3 -0.360944619686539 1.6122 -0.3318 0.7489
25 1 1 0.147374261800477 2.6309 -0.4749 0.3285
26 1 1 0.127516103228035 0.8379 0.3774 -1.1444
27 1 3 -0.162772036865232 -4.3165 -0.2925 0.2868
28 1 1 0.0988489547424441 -2.9809 0.9377 1.3794
29 1 1 0.133008994320279 -3.4019 1.6177 -0.2034
30 1 3 -0.337940250676867 -5.6262 0.389 0.6705
31 1 1 0.155442415003882 -4.4695 -0.7281 -0.7211
32 1 1 0.105535904662181 -4.1139 -1.0834 1.0426
33 2 3 -0.11969049209012 -2.3018 7.3791 0.0132
34 2 5 -0.575681309783092 -3.6988 7.4257 -0.021
35 2 2 0.28656254727489 -3.9981 6.4948 -0.1909
36 2 1 0.143514119870607 -1.9126 8.4006 0.2032
37 2 1 0.105945285418267 -1.9583 6.7172 0.8376
38 2 1 0.111417308391262 -1.9036 7.0312 -0.9646

Bonds

1 7 1 2
2 3 1 5
3 1 1 7
4 4 5 8
5 4 5 11
6 4 5 14
7 4 8 27
8 2 8 28
9 2 8 29
10 5 10 12
11 6 10 20
12 2 9 11
13 4 11 20
14 2 11 21
15 4 14 17
16 2 14 18
17 2 14 19
18 2 13 17
19 2 15 17
20 2 16 17
21 4 20 24
22 2 20 26
23 2 22 24
24 2 23 24
25 2 24 25
26 4 27 30
27 2 27 31
28 2 27 32
29 2 3 30
30 2 4 30
31 2 6 30
32 6 33 34
33 2 33 36
34 2 33 37
35 2 33 38
36 5 34 35

Angles

1 1 1 5 8
2 1 1 5 11
3 1 1 5 14
4 1 3 30 27
5 1 4 30 27
6 1 6 30 27
7 1 5 11 9
8 1 9 11 20
9 1 13 17 14
10 1 14 17 15
11 1 14 17 16
12 1 5 14 18
13 1 17 14 18
14 1 5 14 19
15 1 17 14 19
16 1 5 11 21
17 1 20 11 21
18 1 20 24 22
19 1 20 24 23
20 1 20 24 25
21 1 11 20 26
22 1 24 20 26
23 1 5 8 28
24 1 27 8 28
25 1 5 8 29
26 1 27 8 29
27 1 8 27 31
28 1 30 27 31
29 1 8 27 32
30 1 30 27 32
31 1 3 30 4
32 1 3 30 6
33 1 4 30 6
34 1 9 11 21
35 1 13 17 15
36 1 13 17 16
37 1 15 17 16
38 1 18 14 19
39 1 22 24 23
40 1 22 24 25
41 1 23 24 25
42 1 28 8 29
43 1 31 27 32
44 1 36 33 37
45 1 36 33 38
46 1 37 33 38
47 1 5 8 27
48 1 5 11 20
49 1 5 14 17
50 1 8 5 11
51 1 8 5 14
52 1 8 27 30
53 1 11 5 14
54 1 11 20 24
55 1 10 20 11
56 1 10 20 24
57 1 10 20 26
58 1 34 33 36
59 1 34 33 37
60 1 34 33 38
61 2 12 10 20
62 2 33 34 35
63 3 2 1 5
64 3 2 1 7
65 3 5 1 7

Dihedrals

1 1 1 5 8 27
2 1 1 5 11 20
3 1 1 5 14 17
4 1 1 5 8 28
5 1 1 5 8 29
6 1 1 5 11 9
7 1 1 5 11 21
8 1 1 5 14 18
9 1 1 5 14 19
10 1 3 30 27 8
11 1 4 30 27 8
12 1 6 30 27 8
13 1 8 5 11 9
14 1 9 11 5 14
15 1 9 11 20 24
16 1 5 14 17 13
17 1 5 14 17 15
18 1 5 14 17 16
19 1 8 5 14 18
20 1 11 5 14 18
21 1 8 5 14 19
22 1 11 5 14 19
23 1 8 5 11 21
24 1 14 5 11 21
25 1 21 11 20 24
26 1 11 20 24 22
27 1 11 20 24 23
28 1 11 20 24 25
29 1 5 11 20 26
30 1 11 5 8 28
31 1 14 5 8 28
32 1 28 8 27 30
33 1 11 5 8 29
34 1 14 5 8 29
35 1 29 8 27 30
36 1 5 8 27 31
37 1 5 8 27 32
38 1 3 30 27 31
39 1 3 30 27 32
40 1 4 30 27 31
41 1 4 30 27 32
42 1 6 30 27 31
43 1 6 30 27 32
44 1 9 11 20 26
45 1 13 17 14 18
46 1 13 17 14 19
47 1 15 17 14 18
48 1 15 17 14 19
49 1 16 17 14 18
50 1 16 17 14 19
51 1 21 11 20 26
52 1 22 24 20 26
53 1 23 24 20 26
54 1 25 24 20 26
55 1 28 8 27 31
56 1 28 8 27 32
57 1 29 8 27 31
58 1 29 8 27 32
59 1 5 8 27 30
60 1 5 11 20 24
61 1 8 5 11 20
62 1 8 5 14 17
63 1 11 5 8 27
64 1 11 5 14 17
65 1 14 5 8 27
66 1 14 5 11 20
67 1 5 11 20 10
68 1 9 11 20 10
69 1 10 20 11 21
70 1 10 20 24 22
71 1 10 20 24 23
72 1 10 20 24 25
73 2 11 20 10 12
74 2 12 10 20 24
75 2 12 10 20 26
76 2 35 34 33 36
77 2 35 34 33 37
78 2 35 34 33 38
79 3 2 1 5 8
80 3 2 1 5 11
81 3 2 1 5 14
82 4 7 1 5 8
83 4 7 1 5 11
84 4 7 1 5 14

Impropers

1 1 1 2 5 7
