LAMMPS Description

17 atoms
15 bonds
23 angles
20 dihedrals
1 impropers

10 atom types
10 bond types
3 angle types
5 dihedral types
1 improper types

0.0 25.0 xlo xhi
0.0 25.0 ylo yhi
0.0 25.0 zlo zhi

Masses

1 1.008  # H
2 1.008  # H_HB
3 12.011  # C_3
4 12.011  # C_2_b1
5 15.999  # O_3
6 15.999  # O_3_hd
7 15.999  # O_2
8 15.999  # O_2_ha
9 15.999  # O_2_b1
10 15.999  # O_2_b1_hd

Atoms

1 1 3 -0.343154707018947 0.505845 0.956671 1.410755
2 1 3 0.032400078897234 2.011744 0.799335 1.243506
3 1 1 0.155309314897772 0.267668 1.245668 2.456345
4 1 1 0.104716081115932 0.000839 -0.004453 1.178190
5 1 1 0.130865703544632 0.125210 1.739030 0.720530
6 1 6 -0.595117024701629 2.666873 1.997547 1.558271
7 1 1 0.092637960225375 2.258303 0.480840 0.205159
8 1 1 0.128900945539879 2.376523 0.005256 1.928644
9 1 2 0.293441647499752 2.562593 2.594054 0.771432
10 2 3 -0.417919667200436 0.559618 16.491182 23.974818
11 2 4 0.5532738706993 2.044494 16.579914 24.163173
12 2 1 0.181301565862741 0.275053 15.442290 23.748383
13 2 1 0.151958478553466 0.225633 17.139660 23.137996
14 2 1 0.181294878100364 0.046367 16.815897 24.904102
15 2 10 -0.602013710128208 2.797086 17.372488 23.370094
16 2 2 0.327740392755255 2.402815 17.901857 22.662904
17 2 8 -0.375635808642481 2.580617 15.927792 25.044327

Bonds

1 3 1 2
2 1 1 3
3 1 1 4
4 1 1 5
5 6 2 6
6 1 2 7
7 1 2 8
8 5 6 9
9 2 10 11
10 1 10 12
11 1 10 13
12 1 10 14
13 9 11 15
14 7 11 17
15 8 15 16

Angles

1 1 1 2 6
2 1 1 2 7
3 1 1 2 8
4 1 2 1 3
5 1 2 1 4
6 1 2 1 5
7 1 3 1 4
8 1 3 1 5
9 1 4 1 5
10 1 7 2 8
11 1 12 10 13
12 1 12 10 14
13 1 13 10 14
14 1 6 2 7
15 1 6 2 8
16 1 11 10 12
17 1 11 10 13
18 1 11 10 14
19 2 2 6 9
20 3 10 11 15
21 3 10 11 17
22 3 11 15 16
23 3 15 11 17

Dihedrals

1 1 3 1 2 6
2 1 4 1 2 6
3 1 5 1 2 6
4 1 3 1 2 7
5 1 3 1 2 8
6 1 4 1 2 7
7 1 4 1 2 8
8 1 5 1 2 7
9 1 5 1 2 8
10 2 1 2 6 9
11 2 7 2 6 9
12 2 8 2 6 9
13 3 12 10 11 15
14 3 13 10 11 15
15 3 14 10 11 15
16 3 12 10 11 17
17 3 13 10 11 17
18 3 14 10 11 17
19 5 10 11 15 16
20 5 16 15 11 17

Impropers

1 1 11 10 15 17
