LAMMPS Description

17 atoms
15 bonds
23 angles
20 dihedrals
1 impropers

10 atom types
10 bond types
3 angle types
5 dihedral types
1 improper types

0.0 25.0 xlo xhi
0.0 25.0 ylo yhi
0.0 25.0 zlo zhi

Masses

1 1.008  # H
2 1.008  # H_HB
3 12.011  # C_3
4 12.011  # C_2_b1
5 15.999  # O_3
6 15.999  # O_3_hd
7 15.999  # O_2
8 15.999  # O_2_ha
9 15.999  # O_2_b1
10 15.999  # O_2_b1_hd

Atoms

1 1 3 -0.391633149074968 -6.3522 1.9216 -0.3505
2 1 4 0.556589615212152 -5.177 1.5509 0.5227
3 1 1 0.201137826808064 -6.4046 1.2558 -1.2138
4 1 1 0.168519120338385 -6.2414 2.9459 -0.7119
5 1 1 0.183628299468038 -7.2868 1.8413 0.2089
6 1 7 -0.493000454728176 -5.2511 1.4638 1.7333
7 1 9 -0.555188983919501 -4.0476 1.3667 -0.1962
8 1 3 0.0461055019012647 -2.8322 1.0159 0.5085
9 1 3 -0.344719017092273 -1.6918 0.8863 -0.5127
10 1 1 0.146649239709796 -2.9803 0.0655 1.0297
11 1 1 0.149418469578929 -2.5972 1.7988 1.2355
12 1 1 0.156262961436234 -1.9268 0.119 -1.2538
13 1 1 0.118608569801394 -0.7631 0.6089 -0.0097
14 1 1 0.159977312793546 -1.5343 1.8348 -1.0315
15 1 5 -0.625808536103377 -7.0849 -0.2733 -3.505
16 1 1 0.262142253007304 -6.1028 -0.6829 -3.2244
17 1 1 0.261310970863189 -6.5263 0.0801 -4.3844

Bonds

1 2 1 2
2 1 1 3
3 1 1 4
4 1 1 5
5 7 2 6
6 9 2 7
7 10 7 8
8 3 8 9
9 1 8 10
10 1 8 11
11 1 9 12
12 1 9 13
13 1 9 14
14 4 15 16
15 4 15 17

Angles

1 1 2 1 3
2 1 2 1 4
3 1 2 1 5
4 1 3 1 4
5 1 3 1 5
6 1 4 1 5
7 1 10 8 11
8 1 12 9 13
9 1 12 9 14
10 1 13 9 14
11 1 7 8 9
12 1 7 8 10
13 1 7 8 11
14 1 8 9 12
15 1 8 9 13
16 1 8 9 14
17 1 9 8 10
18 1 9 8 11
19 2 16 15 17
20 3 1 2 6
21 3 1 2 7
22 3 2 7 8
23 3 6 2 7

Dihedrals

1 1 7 8 9 12
2 1 7 8 9 13
3 1 7 8 9 14
4 1 10 8 9 12
5 1 10 8 9 13
6 1 10 8 9 14
7 1 11 8 9 12
8 1 11 8 9 13
9 1 11 8 9 14
10 3 3 1 2 6
11 3 4 1 2 6
12 3 5 1 2 6
13 3 3 1 2 7
14 3 4 1 2 7
15 3 5 1 2 7
16 4 2 7 8 9
17 4 2 7 8 10
18 4 2 7 8 11
19 5 1 2 7 8
20 5 6 2 7 8

Impropers

1 1 2 1 6 7
